+ 0.2 0 1 tcp 40 ------- 0 0.0 2.0 0 0
- 0.2 0 1 tcp 40 ------- 0 0.0 2.0 0 0
r 0.21032 0 1 tcp 40 ------- 0 0.0 2.0 0 0
+ 0.21032 1 2 tcp 40 ------- 0 0.0 2.0 0 0
- 0.21032 1 2 tcp 40 ------- 0 0.0 2.0 0 0
r 0.246987 1 2 tcp 40 ------- 0 0.0 2.0 0 0
+ 0.246987 2 1 ack 40 ------- 0 2.0 0.0 0 1
- 0.246987 2 1 ack 40 ------- 0 2.0 0.0 0 1
r 0.283653 2 1 ack 40 ------- 0 2.0 0.0 0 1
+ 0.283653 1 0 ack 40 ------- 0 2.0 0.0 0 1
- 0.283653 1 0 ack 40 ------- 0 2.0 0.0 0 1
r 0.293973 1 0 ack 40 ------- 0 2.0 0.0 0 1
+ 0.293973 0 1 tcp 1040 ------- 0 0.0 2.0 1 2
- 0.293973 0 1 tcp 1040 ------- 0 0.0 2.0 1 2
+ 0.293973 0 1 tcp 1040 ------- 0 0.0 2.0 2 3
- 0.302293 0 1 tcp 1040 ------- 0 0.0 2.0 2 3
r 0.312293 0 1 tcp 1040 ------- 0 0.0 2.0 1 2
+ 0.312293 1 2 tcp 1040 ------- 0 0.0 2.0 1 2
- 0.312293 1 2 tcp 1040 ------- 0 0.0 2.0 1 2
r 0.320613 0 1 tcp 1040 ------- 0 0.0 2.0 2 3
+ 0.320613 1 2 tcp 1040 ------- 0 0.0 2.0 2 3
+ 0.563973 0 1 tcp 1040 ---A--- 0 0.0 2.0 1 4
- 0.563973 0 1 tcp 1040 ---A--- 0 0.0 2.0 1 4
r 0.582293 0 1 tcp 1040 ---A--- 0 0.0 2.0 1 4
+ 0.582293 1 2 tcp 1040 ---A--- 0 0.0 2.0 1 4
- 1.005627 1 2 tcp 1040 ------- 0 0.0 2.0 2 3
r 1.015627 1 2 tcp 1040 ------- 0 0.0 2.0 1 2
+ 1.015627 2 1 ack 40 ------- 0 2.0 0.0 1 5
- 1.015627 2 1 ack 40 ------- 0 2.0 0.0 1 5
r 1.052293 2 1 ack 40 ------- 0 2.0 0.0 1 5
+ 1.052293 1 0 ack 40 ------- 0 2.0 0.0 1 5
- 1.052293 1 0 ack 40 ------- 0 2.0 0.0 1 5
r 1.062613 1 0 ack 40 ------- 0 2.0 0.0 1 5
+ 1.062613 0 1 tcp 1040 ------- 0 0.0 2.0 2 6
- 1.062613 0 1 tcp 1040 ------- 0 0.0 2.0 2 6
+ 1.062613 0 1 tcp 1040 ------- 0 0.0 2.0 3 7
- 1.070933 0 1 tcp 1040 ------- 0 0.0 2.0 3 7
r 1.080933 0 1 tcp 1040 ------- 0 0.0 2.0 2 6
+ 1.080933 1 2 tcp 1040 ------- 0 0.0 2.0 2 6
r 1.089253 0 1 tcp 1040 ------- 0 0.0 2.0 3 7
+ 1.089253 1 2 tcp 1040 ------- 0 0.0 2.0 3 7
+ 1.602613 0 1 tcp 1040 ---A--- 0 0.0 2.0 2 8
- 1.602613 0 1 tcp 1040 ---A--- 0 0.0 2.0 2 8
r 1.620933 0 1 tcp 1040 ---A--- 0 0.0 2.0 2 8
+ 1.620933 1 2 tcp 1040 ---A--- 0 0.0 2.0 2 8
- 1.69896 1 2 tcp 1040 ---A--- 0 0.0 2.0 1 4
r 1.70896 1 2 tcp 1040 ------- 0 0.0 2.0 2 3
+ 1.70896 2 1 ack 40 ------- 0 2.0 0.0 2 9
- 1.70896 2 1 ack 40 ------- 0 2.0 0.0 2 9
r 1.745627 2 1 ack 40 ------- 0 2.0 0.0 2 9
+ 1.745627 1 0 ack 40 ------- 0 2.0 0.0 2 9
- 1.745627 1 0 ack 40 ------- 0 2.0 0.0 2 9
r 1.755947 1 0 ack 40 ------- 0 2.0 0.0 2 9
+ 1.755947 0 1 tcp 1040 ------- 0 0.0 2.0 3 10
- 1.755947 0 1 tcp 1040 ------- 0 0.0 2.0 3 10
+ 1.755947 0 1 tcp 1040 ------- 0 0.0 2.0 4 11
- 1.764267 0 1 tcp 1040 ------- 0 0.0 2.0 4 11
r 1.774267 0 1 tcp 1040 ------- 0 0.0 2.0 3 10
+ 1.774267 1 2 tcp 1040 ------- 0 0.0 2.0 3 10
r 1.782587 0 1 tcp 1040 ------- 0 0.0 2.0 4 11
+ 1.782587 1 2 tcp 1040 ------- 0 0.0 2.0 4 11
d 1.782587 1 2 tcp 1040 ------- 0 0.0 2.0 4 11
- 2.392293 1 2 tcp 1040 ------- 0 0.0 2.0 2 6
r 2.402293 1 2 tcp 1040 ---A--- 0 0.0 2.0 1 4
+ 2.402293 2 1 ack 40 ------- 0 2.0 0.0 2 12
- 2.402293 2 1 ack 40 ------- 0 2.0 0.0 2 12
r 2.43896 2 1 ack 40 ------- 0 2.0 0.0 2 12
+ 2.43896 1 0 ack 40 ------- 0 2.0 0.0 2 12
- 2.43896 1 0 ack 40 ------- 0 2.0 0.0 2 12
r 2.44928 1 0 ack 40 ------- 0 2.0 0.0 2 12
+ 2.44928 0 1 tcp 1040 ------- 0 0.0 2.0 5 13
- 2.44928 0 1 tcp 1040 ------- 0 0.0 2.0 5 13
r 2.4676 0 1 tcp 1040 ------- 0 0.0 2.0 5 13
+ 2.4676 1 2 tcp 1040 ------- 0 0.0 2.0 5 13
+ 2.835947 0 1 tcp 1040 ---A--- 0 0.0 2.0 3 14
- 2.835947 0 1 tcp 1040 ---A--- 0 0.0 2.0 3 14
r 2.854267 0 1 tcp 1040 ---A--- 0 0.0 2.0 3 14
+ 2.854267 1 2 tcp 1040 ---A--- 0 0.0 2.0 3 14
d 2.854267 1 2 tcp 1040 ---A--- 0 0.0 2.0 3 14
- 3.085627 1 2 tcp 1040 ------- 0 0.0 2.0 3 7
r 3.095627 1 2 tcp 1040 ------- 0 0.0 2.0 2 6
+ 3.095627 2 1 ack 40 ------- 0 2.0 0.0 2 15
- 3.095627 2 1 ack 40 ------- 0 2.0 0.0 2 15
r 3.132293 2 1 ack 40 ------- 0 2.0 0.0 2 15
+ 3.132293 1 0 ack 40 ------- 0 2.0 0.0 2 15
- 3.132293 1 0 ack 40 ------- 0 2.0 0.0 2 15
r 3.142613 1 0 ack 40 ------- 0 2.0 0.0 2 15
+ 3.142613 0 1 tcp 1040 ------- 0 0.0 2.0 4 16
- 3.142613 0 1 tcp 1040 ------- 0 0.0 2.0 4 16
r 3.160933 0 1 tcp 1040 ------- 0 0.0 2.0 4 16
+ 3.160933 1 2 tcp 1040 ------- 0 0.0 2.0 4 16
- 3.77896 1 2 tcp 1040 ---A--- 0 0.0 2.0 2 8
r 3.78896 1 2 tcp 1040 ------- 0 0.0 2.0 3 7
+ 3.78896 2 1 ack 40 ------- 0 2.0 0.0 3 17
- 3.78896 2 1 ack 40 ------- 0 2.0 0.0 3 17
r 3.825627 2 1 ack 40 ------- 0 2.0 0.0 3 17
+ 3.825627 1 0 ack 40 ------- 0 2.0 0.0 3 17
- 3.825627 1 0 ack 40 ------- 0 2.0 0.0 3 17
r 3.835947 1 0 ack 40 ------- 0 2.0 0.0 3 17
+ 3.835947 0 1 tcp 1040 ------- 0 0.0 2.0 5 18
- 3.835947 0 1 tcp 1040 ------- 0 0.0 2.0 5 18
r 3.854267 0 1 tcp 1040 ------- 0 0.0 2.0 5 18
+ 3.854267 1 2 tcp 1040 ------- 0 0.0 2.0 5 18
- 4.472293 1 2 tcp 1040 ------- 0 0.0 2.0 3 10
r 4.482293 1 2 tcp 1040 ---A--- 0 0.0 2.0 2 8
+ 4.482293 2 1 ack 40 ------- 0 2.0 0.0 3 19
- 4.482293 2 1 ack 40 ------- 0 2.0 0.0 3 19
r 4.51896 2 1 ack 40 ------- 0 2.0 0.0 3 19
+ 4.51896 1 0 ack 40 ------- 0 2.0 0.0 3 19
- 4.51896 1 0 ack 40 ------- 0 2.0 0.0 3 19
r 4.52928 1 0 ack 40 ------- 0 2.0 0.0 3 19
