+ 0.2 0 1 tcp 40 ------- 0 0.0 2.0 0 0
- 0.2 0 1 tcp 40 ------- 0 0.0 2.0 0 0
r 0.21032 0 1 tcp 40 ------- 0 0.0 2.0 0 0
+ 0.21032 1 2 tcp 40 ------- 0 0.0 2.0 0 0
- 0.21032 1 2 tcp 40 ------- 0 0.0 2.0 0 0
r 0.220945 1 2 tcp 40 ------- 0 0.0 2.0 0 0
+ 0.220945 2 1 ack 40 ------- 0 2.0 0.0 0 1
- 0.220945 2 1 ack 40 ------- 0 2.0 0.0 0 1
r 0.23157 2 1 ack 40 ------- 0 2.0 0.0 0 1
+ 0.23157 1 0 ack 40 ------- 0 2.0 0.0 0 1
- 0.23157 1 0 ack 40 ------- 0 2.0 0.0 0 1
r 0.24189 1 0 ack 40 ------- 0 2.0 0.0 0 1
+ 0.24189 0 1 tcp 1040 ------- 0 0.0 2.0 1 2
- 0.24189 0 1 tcp 1040 ------- 0 0.0 2.0 1 2
+ 0.24189 0 1 tcp 1040 ------- 0 0.0 2.0 2 3
- 0.25021 0 1 tcp 1040 ------- 0 0.0 2.0 2 3
r 0.26021 0 1 tcp 1040 ------- 0 0.0 2.0 1 2
+ 0.26021 1 2 tcp 1040 ------- 0 0.0 2.0 1 2
- 0.26021 1 2 tcp 1040 ------- 0 0.0 2.0 1 2
r 0.26853 0 1 tcp 1040 ------- 0 0.0 2.0 2 3
+ 0.26853 1 2 tcp 1040 ------- 0 0.0 2.0 2 3
- 0.27646 1 2 tcp 1040 ------- 0 0.0 2.0 2 3
r 0.28646 1 2 tcp 1040 ------- 0 0.0 2.0 1 2
+ 0.28646 2 1 ack 40 ------- 0 2.0 0.0 1 4
- 0.28646 2 1 ack 40 ------- 0 2.0 0.0 1 4
r 0.297085 2 1 ack 40 ------- 0 2.0 0.0 1 4
+ 0.297085 1 0 ack 40 ------- 0 2.0 0.0 1 4
- 0.297085 1 0 ack 40 ------- 0 2.0 0.0 1 4
r 0.30271 1 2 tcp 1040 ------- 0 0.0 2.0 2 3
+ 0.30271 2 1 ack 40 ------- 0 2.0 0.0 2 5
- 0.30271 2 1 ack 40 ------- 0 2.0 0.0 2 5
r 0.307405 1 0 ack 40 ------- 0 2.0 0.0 1 4
+ 0.307405 0 1 tcp 1040 ------- 0 0.0 2.0 3 6
- 0.307405 0 1 tcp 1040 ------- 0 0.0 2.0 3 6
+ 0.307405 0 1 tcp 1040 ------- 0 0.0 2.0 4 7
r 0.313335 2 1 ack 40 ------- 0 2.0 0.0 2 5
+ 0.313335 1 0 ack 40 ------- 0 2.0 0.0 2 5
- 0.313335 1 0 ack 40 ------- 0 2.0 0.0 2 5
- 0.315725 0 1 tcp 1040 ------- 0 0.0 2.0 4 7
r 0.323655 1 0 ack 40 ------- 0 2.0 0.0 2 5
+ 0.323655 0 1 tcp 1040 ------- 0 0.0 2.0 5 8
+ 0.323655 0 1 tcp 1040 ------- 0 0.0 2.0 6 9
- 0.324045 0 1 tcp 1040 ------- 0 0.0 2.0 5 8
r 0.325725 0 1 tcp 1040 ------- 0 0.0 2.0 3 6
+ 0.325725 1 2 tcp 1040 ------- 0 0.0 2.0 3 6
- 0.325725 1 2 tcp 1040 ------- 0 0.0 2.0 3 6
- 0.332365 0 1 tcp 1040 ------- 0 0.0 2.0 6 9
r 0.334045 0 1 tcp 1040 ------- 0 0.0 2.0 4 7
+ 0.334045 1 2 tcp 1040 ------- 0 0.0 2.0 4 7
- 0.341975 1 2 tcp 1040 ------- 0 0.0 2.0 4 7
r 0.342365 0 1 tcp 1040 ------- 0 0.0 2.0 5 8
+ 0.342365 1 2 tcp 1040 ------- 0 0.0 2.0 5 8
r 0.350685 0 1 tcp 1040 ------- 0 0.0 2.0 6 9
+ 0.350685 1 2 tcp 1040 ------- 0 0.0 2.0 6 9
r 0.351975 1 2 tcp 1040 ------- 0 0.0 2.0 3 6
+ 0.351975 2 1 ack 40 ------- 0 2.0 0.0 3 10
- 0.351975 2 1 ack 40 ------- 0 2.0 0.0 3 10
- 0.358225 1 2 tcp 1040 ------- 0 0.0 2.0 5 8
r 0.3626 2 1 ack 40 ------- 0 2.0 0.0 3 10
+ 0.3626 1 0 ack 40 ------- 0 2.0 0.0 3 10
- 0.3626 1 0 ack 40 ------- 0 2.0 0.0 3 10
r 0.368225 1 2 tcp 1040 ------- 0 0.0 2.0 4 7
+ 0.368225 2 1 ack 40 ------- 0 2.0 0.0 4 11
- 0.368225 2 1 ack 40 ------- 0 2.0 0.0 4 11
r 0.37292 1 0 ack 40 ------- 0 2.0 0.0 3 10
+ 0.37292 0 1 tcp 1040 ------- 0 0.0 2.0 7 12
- 0.37292 0 1 tcp 1040 ------- 0 0.0 2.0 7 12
+ 0.37292 0 1 tcp 1040 ------- 0 0.0 2.0 8 13
- 0.374475 1 2 tcp 1040 ------- 0 0.0 2.0 6 9
r 0.37885 2 1 ack 40 ------- 0 2.0 0.0 4 11
+ 0.37885 1 0 ack 40 ------- 0 2.0 0.0 4 11
- 0.37885 1 0 ack 40 ------- 0 2.0 0.0 4 11
- 0.38124 0 1 tcp 1040 ------- 0 0.0 2.0 8 13
r 0.384475 1 2 tcp 1040 ------- 0 0.0 2.0 5 8
+ 0.384475 2 1 ack 40 ------- 0 2.0 0.0 5 14
- 0.384475 2 1 ack 40 ------- 0 2.0 0.0 5 14
r 0.38917 1 0 ack 40 ------- 0 2.0 0.0 4 11
+ 0.38917 0 1 tcp 1040 ------- 0 0.0 2.0 9 15
+ 0.38917 0 1 tcp 1040 ------- 0 0.0 2.0 10 16
- 0.38956 0 1 tcp 1040 ------- 0 0.0 2.0 9 15
r 0.39124 0 1 tcp 1040 ------- 0 0.0 2.0 7 12
+ 0.39124 1 2 tcp 1040 ------- 0 0.0 2.0 7 12
- 0.39124 1 2 tcp 1040 ------- 0 0.0 2.0 7 12
r 0.3951 2 1 ack 40 ------- 0 2.0 0.0 5 14
+ 0.3951 1 0 ack 40 ------- 0 2.0 0.0 5 14
- 0.3951 1 0 ack 40 ------- 0 2.0 0.0 5 14
- 0.39788 0 1 tcp 1040 ------- 0 0.0 2.0 10 16
r 0.39956 0 1 tcp 1040 ------- 0 0.0 2.0 8 13
+ 0.39956 1 2 tcp 1040 ------- 0 0.0 2.0 8 13
r 0.400725 1 2 tcp 1040 ------- 0 0.0 2.0 6 9
+ 0.400725 2 1 ack 40 ------- 0 2.0 0.0 6 17
- 0.400725 2 1 ack 40 ------- 0 2.0 0.0 6 17
r 0.40542 1 0 ack 40 ------- 0 2.0 0.0 5 14
+ 0.40542 0 1 tcp 1040 ------- 0 0.0 2.0 11 18
+ 0.40542 0 1 tcp 1040 ------- 0 0.0 2.0 12 19
- 0.4062 0 1 tcp 1040 ------- 0 0.0 2.0 11 18
- 0.40749 1 2 tcp 1040 ------- 0 0.0 2.0 8 13
r 0.40788 0 1 tcp 1040 ------- 0 0.0 2.0 9 15
+ 0.40788 1 2 tcp 1040 ------- 0 0.0 2.0 9 15
r 0.41135 2 1 ack 40 ------- 0 2.0 0.0 6 17
+ 0.41135 1 0 ack 40 ------- 0 2.0 0.0 6 17
- 0.41135 1 0 ack 40 ------- 0 2.0 0.0 6 17
- 0.41452 0 1 tcp 1040 ------- 0 0.0 2.0 12 19
r 0.4162 0 1 tcp 1040 ------- 0 0.0 2.0 10 16
+ 0.4162 1 2 tcp 1040 ------- 0 0.0 2.0 10 16
r 0.41749 1 2 tcp 1040 ------- 0 0.0 2.0 7 12
+ 0.41749 2 1 ack 40 ------- 0 2.0 0.0 7 20
- 0.41749 2 1 ack 40 ------- 0 2.0 0.0 7 20
r 0.42167 1 0 ack 40 ------- 0 2.0 0.0 6 17
+ 0.42167 0 1 tcp 1040 ------- 0 0.0 2.0 13 21
+ 0.42167 0 1 tcp 1040 ------- 0 0.0 2.0 14 22
- 0.42284 0 1 tcp 1040 ------- 0 0.0 2.0 13 21
- 0.42374 1 2 tcp 1040 ------- 0 0.0 2.0 9 15
r 0.42452 0 1 tcp 1040 ------- 0 0.0 2.0 11 18
+ 0.42452 1 2 tcp 1040 ------- 0 0.0 2.0 11 18
r 0.428115 2 1 ack 40 ------- 0 2.0 0.0 7 20
+ 0.428115 1 0 ack 40 ------- 0 2.0 0.0 7 20
- 0.428115 1 0 ack 40 ------- 0 2.0 0.0 7 20
- 0.43116 0 1 tcp 1040 ------- 0 0.0 2.0 14 22
r 0.43284 0 1 tcp 1040 ------- 0 0.0 2.0 12 19
+ 0.43284 1 2 tcp 1040 ------- 0 0.0 2.0 12 19
r 0.43374 1 2 tcp 1040 ------- 0 0.0 2.0 8 13
+ 0.43374 2 1 ack 40 ------- 0 2.0 0.0 8 23
- 0.43374 2 1 ack 40 ------- 0 2.0 0.0 8 23
r 0.438435 1 0 ack 40 ------- 0 2.0 0.0 7 20
+ 0.438435 0 1 tcp 1040 ------- 0 0.0 2.0 15 24
+ 0.438435 0 1 tcp 1040 ------- 0 0.0 2.0 16 25
- 0.43948 0 1 tcp 1040 ------- 0 0.0 2.0 15 24
- 0.43999 1 2 tcp 1040 ------- 0 0.0 2.0 10 16
r 0.44116 0 1 tcp 1040 ------- 0 0.0 2.0 13 21
+ 0.44116 1 2 tcp 1040 ------- 0 0.0 2.0 13 21
r 0.444365 2 1 ack 40 ------- 0 2.0 0.0 8 23
+ 0.444365 1 0 ack 40 ------- 0 2.0 0.0 8 23
- 0.444365 1 0 ack 40 ------- 0 2.0 0.0 8 23
- 0.4478 0 1 tcp 1040 ------- 0 0.0 2.0 16 25
r 0.44948 0 1 tcp 1040 ------- 0 0.0 2.0 14 22
+ 0.44948 1 2 tcp 1040 ------- 0 0.0 2.0 14 22
r 0.44999 1 2 tcp 1040 ------- 0 0.0 2.0 9 15
+ 0.44999 2 1 ack 40 ------- 0 2.0 0.0 9 26
- 0.44999 2 1 ack 40 ------- 0 2.0 0.0 9 26
r 0.454685 1 0 ack 40 ------- 0 2.0 0.0 8 23
+ 0.454685 0 1 tcp 1040 ------- 0 0.0 2.0 17 27
+ 0.454685 0 1 tcp 1040 ------- 0 0.0 2.0 18 28
- 0.45612 0 1 tcp 1040 ------- 0 0.0 2.0 17 27
- 0.45624 1 2 tcp 1040 ------- 0 0.0 2.0 11 18
r 0.4578 0 1 tcp 1040 ------- 0 0.0 2.0 15 24
+ 0.4578 1 2 tcp 1040 ------- 0 0.0 2.0 15 24
r 0.460615 2 1 ack 40 ------- 0 2.0 0.0 9 26
+ 0.460615 1 0 ack 40 ------- 0 2.0 0.0 9 26
- 0.460615 1 0 ack 40 ------- 0 2.0 0.0 9 26
- 0.46444 0 1 tcp 1040 ------- 0 0.0 2.0 18 28
r 0.46612 0 1 tcp 1040 ------- 0 0.0 2.0 16 25
+ 0.46612 1 2 tcp 1040 ------- 0 0.0 2.0 16 25
d 0.46612 1 2 tcp 1040 ------- 0 0.0 2.0 16 25
r 0.46624 1 2 tcp 1040 ------- 0 0.0 2.0 10 16
+ 0.46624 2 1 ack 40 ------- 0 2.0 0.0 10 29
- 0.46624 2 1 ack 40 ------- 0 2.0 0.0 10 29
r 0.470935 1 0 ack 40 ------- 0 2.0 0.0 9 26
+ 0.470935 0 1 tcp 1040 ------- 0 0.0 2.0 19 30
+ 0.470935 0 1 tcp 1040 ------- 0 0.0 2.0 20 31
- 0.47249 1 2 tcp 1040 ------- 0 0.0 2.0 12 19
- 0.47276 0 1 tcp 1040 ------- 0 0.0 2.0 19 30
r 0.47444 0 1 tcp 1040 ------- 0 0.0 2.0 17 27
+ 0.47444 1 2 tcp 1040 ------- 0 0.0 2.0 17 27
r 0.476865 2 1 ack 40 ------- 0 2.0 0.0 10 29
+ 0.476865 1 0 ack 40 ------- 0 2.0 0.0 10 29
- 0.476865 1 0 ack 40 ------- 0 2.0 0.0 10 29
- 0.48108 0 1 tcp 1040 ------- 0 0.0 2.0 20 31
r 0.48249 1 2 tcp 1040 ------- 0 0.0 2.0 11 18
+ 0.48249 2 1 ack 40 ------- 0 2.0 0.0 11 32
- 0.48249 2 1 ack 40 ------- 0 2.0 0.0 11 32
r 0.48276 0 1 tcp 1040 ------- 0 0.0 2.0 18 28
+ 0.48276 1 2 tcp 1040 ------- 0 0.0 2.0 18 28
d 0.48276 1 2 tcp 1040 ------- 0 0.0 2.0 18 28
r 0.487185 1 0 ack 40 ------- 0 2.0 0.0 10 29
+ 0.487185 0 1 tcp 1040 ------- 0 0.0 2.0 21 33
+ 0.487185 0 1 tcp 1040 ------- 0 0.0 2.0 22 34
- 0.48874 1 2 tcp 1040 ------- 0 0.0 2.0 13 21
- 0.4894 0 1 tcp 1040 ------- 0 0.0 2.0 21 33
r 0.49108 0 1 tcp 1040 ------- 0 0.0 2.0 19 30
+ 0.49108 1 2 tcp 1040 ------- 0 0.0 2.0 19 30
r 0.493115 2 1 ack 40 ------- 0 2.0 0.0 11 32
+ 0.493115 1 0 ack 40 ------- 0 2.0 0.0 11 32
- 0.493115 1 0 ack 40 ------- 0 2.0 0.0 11 32
- 0.49772 0 1 tcp 1040 ------- 0 0.0 2.0 22 34
r 0.49874 1 2 tcp 1040 ------- 0 0.0 2.0 12 19
+ 0.49874 2 1 ack 40 ------- 0 2.0 0.0 12 35
- 0.49874 2 1 ack 40 ------- 0 2.0 0.0 12 35
r 0.4994 0 1 tcp 1040 ------- 0 0.0 2.0 20 31
+ 0.4994 1 2 tcp 1040 ------- 0 0.0 2.0 20 31
d 0.4994 1 2 tcp 1040 ------- 0 0.0 2.0 20 31
r 0.503435 1 0 ack 40 ------- 0 2.0 0.0 11 32
+ 0.503435 0 1 tcp 1040 ------- 0 0.0 2.0 23 36
+ 0.503435 0 1 tcp 1040 ------- 0 0.0 2.0 24 37
- 0.50499 1 2 tcp 1040 ------- 0 0.0 2.0 14 22
- 0.50604 0 1 tcp 1040 ------- 0 0.0 2.0 23 36
r 0.50772 0 1 tcp 1040 ------- 0 0.0 2.0 21 33
+ 0.50772 1 2 tcp 1040 ------- 0 0.0 2.0 21 33
r 0.509365 2 1 ack 40 ------- 0 2.0 0.0 12 35
+ 0.509365 1 0 ack 40 ------- 0 2.0 0.0 12 35
- 0.509365 1 0 ack 40 ------- 0 2.0 0.0 12 35
- 0.51436 0 1 tcp 1040 ------- 0 0.0 2.0 24 37
r 0.51499 1 2 tcp 1040 ------- 0 0.0 2.0 13 21
+ 0.51499 2 1 ack 40 ------- 0 2.0 0.0 13 38
- 0.51499 2 1 ack 40 ------- 0 2.0 0.0 13 38
r 0.51604 0 1 tcp 1040 ------- 0 0.0 2.0 22 34
+ 0.51604 1 2 tcp 1040 ------- 0 0.0 2.0 22 34
d 0.51604 1 2 tcp 1040 ------- 0 0.0 2.0 22 34
r 0.519685 1 0 ack 40 ------- 0 2.0 0.0 12 35
+ 0.519685 0 1 tcp 1040 ------- 0 0.0 2.0 25 39
+ 0.519685 0 1 tcp 1040 ------- 0 0.0 2.0 26 40
- 0.52124 1 2 tcp 1040 ------- 0 0.0 2.0 15 24
- 0.52268 0 1 tcp 1040 ------- 0 0.0 2.0 25 39
r 0.52436 0 1 tcp 1040 ------- 0 0.0 2.0 23 36
+ 0.52436 1 2 tcp 1040 ------- 0 0.0 2.0 23 36
r 0.525615 2 1 ack 40 ------- 0 2.0 0.0 13 38
+ 0.525615 1 0 ack 40 ------- 0 2.0 0.0 13 38
- 0.525615 1 0 ack 40 ------- 0 2.0 0.0 13 38
- 0.531 0 1 tcp 1040 ------- 0 0.0 2.0 26 40
r 0.53124 1 2 tcp 1040 ------- 0 0.0 2.0 14 22
+ 0.53124 2 1 ack 40 ------- 0 2.0 0.0 14 41
- 0.53124 2 1 ack 40 ------- 0 2.0 0.0 14 41
r 0.53268 0 1 tcp 1040 ------- 0 0.0 2.0 24 37
+ 0.53268 1 2 tcp 1040 ------- 0 0.0 2.0 24 37
d 0.53268 1 2 tcp 1040 ------- 0 0.0 2.0 24 37
r 0.535935 1 0 ack 40 ------- 0 2.0 0.0 13 38
+ 0.535935 0 1 tcp 1040 ------- 0 0.0 2.0 27 42
+ 0.535935 0 1 tcp 1040 ------- 0 0.0 2.0 28 43
- 0.53749 1 2 tcp 1040 ------- 0 0.0 2.0 17 27
- 0.53932 0 1 tcp 1040 ------- 0 0.0 2.0 27 42
r 0.541 0 1 tcp 1040 ------- 0 0.0 2.0 25 39
+ 0.541 1 2 tcp 1040 ------- 0 0.0 2.0 25 39
r 0.541865 2 1 ack 40 ------- 0 2.0 0.0 14 41
+ 0.541865 1 0 ack 40 ------- 0 2.0 0.0 14 41
- 0.541865 1 0 ack 40 ------- 0 2.0 0.0 14 41
r 0.54749 1 2 tcp 1040 ------- 0 0.0 2.0 15 24
+ 0.54749 2 1 ack 40 ------- 0 2.0 0.0 15 44
- 0.54749 2 1 ack 40 ------- 0 2.0 0.0 15 44
- 0.54764 0 1 tcp 1040 ------- 0 0.0 2.0 28 43
r 0.54932 0 1 tcp 1040 ------- 0 0.0 2.0 26 40
+ 0.54932 1 2 tcp 1040 ------- 0 0.0 2.0 26 40
d 0.54932 1 2 tcp 1040 ------- 0 0.0 2.0 26 40
r 0.552185 1 0 ack 40 ------- 0 2.0 0.0 14 41
+ 0.552185 0 1 tcp 1040 ------- 0 0.0 2.0 29 45
+ 0.552185 0 1 tcp 1040 ------- 0 0.0 2.0 30 46
- 0.55374 1 2 tcp 1040 ------- 0 0.0 2.0 19 30
- 0.55596 0 1 tcp 1040 ------- 0 0.0 2.0 29 45
r 0.55764 0 1 tcp 1040 ------- 0 0.0 2.0 27 42
+ 0.55764 1 2 tcp 1040 ------- 0 0.0 2.0 27 42
r 0.558115 2 1 ack 40 ------- 0 2.0 0.0 15 44
+ 0.558115 1 0 ack 40 ------- 0 2.0 0.0 15 44
- 0.558115 1 0 ack 40 ------- 0 2.0 0.0 15 44
r 0.56374 1 2 tcp 1040 ------- 0 0.0 2.0 17 27
+ 0.56374 2 1 ack 40 ------- 0 2.0 0.0 15 47
- 0.56374 2 1 ack 40 ------- 0 2.0 0.0 15 47
- 0.56428 0 1 tcp 1040 ------- 0 0.0 2.0 30 46
r 0.56596 0 1 tcp 1040 ------- 0 0.0 2.0 28 43
+ 0.56596 1 2 tcp 1040 ------- 0 0.0 2.0 28 43
d 0.56596 1 2 tcp 1040 ------- 0 0.0 2.0 28 43
r 0.568435 1 0 ack 40 ------- 0 2.0 0.0 15 44
+ 0.568435 0 1 tcp 1040 ------- 0 0.0 2.0 31 48
+ 0.568435 0 1 tcp 1040 ------- 0 0.0 2.0 32 49
- 0.56999 1 2 tcp 1040 ------- 0 0.0 2.0 21 33
- 0.5726 0 1 tcp 1040 ------- 0 0.0 2.0 31 48
r 0.57428 0 1 tcp 1040 ------- 0 0.0 2.0 29 45
+ 0.57428 1 2 tcp 1040 ------- 0 0.0 2.0 29 45
r 0.574365 2 1 ack 40 ------- 0 2.0 0.0 15 47
+ 0.574365 1 0 ack 40 ------- 0 2.0 0.0 15 47
- 0.574365 1 0 ack 40 ------- 0 2.0 0.0 15 47
r 0.57999 1 2 tcp 1040 ------- 0 0.0 2.0 19 30
+ 0.57999 2 1 ack 40 ------- 0 2.0 0.0 15 50
- 0.57999 2 1 ack 40 ------- 0 2.0 0.0 15 50
- 0.58092 0 1 tcp 1040 ------- 0 0.0 2.0 32 49
r 0.5826 0 1 tcp 1040 ------- 0 0.0 2.0 30 46
+ 0.5826 1 2 tcp 1040 ------- 0 0.0 2.0 30 46
d 0.5826 1 2 tcp 1040 ------- 0 0.0 2.0 30 46
r 0.584685 1 0 ack 40 ------- 0 2.0 0.0 15 47
+ 0.584685 0 1 tcp 1040 ------- 0 0.0 2.0 33 51
- 0.58624 1 2 tcp 1040 ------- 0 0.0 2.0 23 36
- 0.58924 0 1 tcp 1040 ------- 0 0.0 2.0 33 51
r 0.590615 2 1 ack 40 ------- 0 2.0 0.0 15 50
+ 0.590615 1 0 ack 40 ------- 0 2.0 0.0 15 50
- 0.590615 1 0 ack 40 ------- 0 2.0 0.0 15 50
r 0.59092 0 1 tcp 1040 ------- 0 0.0 2.0 31 48
+ 0.59092 1 2 tcp 1040 ------- 0 0.0 2.0 31 48
r 0.59624 1 2 tcp 1040 ------- 0 0.0 2.0 21 33
+ 0.59624 2 1 ack 40 ------- 0 2.0 0.0 15 52
- 0.59624 2 1 ack 40 ------- 0 2.0 0.0 15 52
r 0.59924 0 1 tcp 1040 ------- 0 0.0 2.0 32 49
+ 0.59924 1 2 tcp 1040 ------- 0 0.0 2.0 32 49
d 0.59924 1 2 tcp 1040 ------- 0 0.0 2.0 32 49
r 0.600935 1 0 ack 40 ------- 0 2.0 0.0 15 50
+ 0.600935 0 1 tcp 1040 ------- 0 0.0 2.0 34 53
- 0.600935 0 1 tcp 1040 ------- 0 0.0 2.0 34 53
- 0.60249 1 2 tcp 1040 ------- 0 0.0 2.0 25 39
r 0.606865 2 1 ack 40 ------- 0 2.0 0.0 15 52
+ 0.606865 1 0 ack 40 ------- 0 2.0 0.0 15 52
- 0.606865 1 0 ack 40 ------- 0 2.0 0.0 15 52
r 0.60756 0 1 tcp 1040 ------- 0 0.0 2.0 33 51
+ 0.60756 1 2 tcp 1040 ------- 0 0.0 2.0 33 51
r 0.61249 1 2 tcp 1040 ------- 0 0.0 2.0 23 36
+ 0.61249 2 1 ack 40 ------- 0 2.0 0.0 15 54
- 0.61249 2 1 ack 40 ------- 0 2.0 0.0 15 54
r 0.617185 1 0 ack 40 ------- 0 2.0 0.0 15 52
+ 0.617185 0 1 tcp 1040 ---A--- 0 0.0 2.0 16 55
- 0.617185 0 1 tcp 1040 ---A--- 0 0.0 2.0 16 55
- 0.61874 1 2 tcp 1040 ------- 0 0.0 2.0 27 42
r 0.619255 0 1 tcp 1040 ------- 0 0.0 2.0 34 53
+ 0.619255 1 2 tcp 1040 ------- 0 0.0 2.0 34 53
r 0.623115 2 1 ack 40 ------- 0 2.0 0.0 15 54
+ 0.623115 1 0 ack 40 ------- 0 2.0 0.0 15 54
- 0.623115 1 0 ack 40 ------- 0 2.0 0.0 15 54
r 0.62874 1 2 tcp 1040 ------- 0 0.0 2.0 25 39
+ 0.62874 2 1 ack 40 ------- 0 2.0 0.0 15 56
- 0.62874 2 1 ack 40 ------- 0 2.0 0.0 15 56
r 0.633435 1 0 ack 40 ------- 0 2.0 0.0 15 54
- 0.63499 1 2 tcp 1040 ------- 0 0.0 2.0 29 45
r 0.635505 0 1 tcp 1040 ---A--- 0 0.0 2.0 16 55
+ 0.635505 1 2 tcp 1040 ---A--- 0 0.0 2.0 16 55
r 0.639365 2 1 ack 40 ------- 0 2.0 0.0 15 56
+ 0.639365 1 0 ack 40 ------- 0 2.0 0.0 15 56
- 0.639365 1 0 ack 40 ------- 0 2.0 0.0 15 56
r 0.64499 1 2 tcp 1040 ------- 0 0.0 2.0 27 42
+ 0.64499 2 1 ack 40 ------- 0 2.0 0.0 15 57
- 0.64499 2 1 ack 40 ------- 0 2.0 0.0 15 57
r 0.649685 1 0 ack 40 ------- 0 2.0 0.0 15 56
- 0.65124 1 2 tcp 1040 ------- 0 0.0 2.0 31 48
r 0.655615 2 1 ack 40 ------- 0 2.0 0.0 15 57
+ 0.655615 1 0 ack 40 ------- 0 2.0 0.0 15 57
- 0.655615 1 0 ack 40 ------- 0 2.0 0.0 15 57
r 0.66124 1 2 tcp 1040 ------- 0 0.0 2.0 29 45
+ 0.66124 2 1 ack 40 ------- 0 2.0 0.0 15 58
- 0.66124 2 1 ack 40 ------- 0 2.0 0.0 15 58
r 0.665935 1 0 ack 40 ------- 0 2.0 0.0 15 57
- 0.66749 1 2 tcp 1040 ------- 0 0.0 2.0 33 51
r 0.671865 2 1 ack 40 ------- 0 2.0 0.0 15 58
+ 0.671865 1 0 ack 40 ------- 0 2.0 0.0 15 58
- 0.671865 1 0 ack 40 ------- 0 2.0 0.0 15 58
r 0.67749 1 2 tcp 1040 ------- 0 0.0 2.0 31 48
+ 0.67749 2 1 ack 40 ------- 0 2.0 0.0 15 59
- 0.67749 2 1 ack 40 ------- 0 2.0 0.0 15 59
r 0.682185 1 0 ack 40 ------- 0 2.0 0.0 15 58
- 0.68374 1 2 tcp 1040 ------- 0 0.0 2.0 34 53
r 0.688115 2 1 ack 40 ------- 0 2.0 0.0 15 59
+ 0.688115 1 0 ack 40 ------- 0 2.0 0.0 15 59
- 0.688115 1 0 ack 40 ------- 0 2.0 0.0 15 59
r 0.69374 1 2 tcp 1040 ------- 0 0.0 2.0 33 51
+ 0.69374 2 1 ack 40 ------- 0 2.0 0.0 15 60
- 0.69374 2 1 ack 40 ------- 0 2.0 0.0 15 60
r 0.698435 1 0 ack 40 ------- 0 2.0 0.0 15 59
- 0.69999 1 2 tcp 1040 ---A--- 0 0.0 2.0 16 55
r 0.704365 2 1 ack 40 ------- 0 2.0 0.0 15 60
+ 0.704365 1 0 ack 40 ------- 0 2.0 0.0 15 60
- 0.704365 1 0 ack 40 ------- 0 2.0 0.0 15 60
r 0.70999 1 2 tcp 1040 ------- 0 0.0 2.0 34 53
+ 0.70999 2 1 ack 40 ------- 0 2.0 0.0 15 61
- 0.70999 2 1 ack 40 ------- 0 2.0 0.0 15 61
r 0.714685 1 0 ack 40 ------- 0 2.0 0.0 15 60
r 0.720615 2 1 ack 40 ------- 0 2.0 0.0 15 61
+ 0.720615 1 0 ack 40 ------- 0 2.0 0.0 15 61
- 0.720615 1 0 ack 40 ------- 0 2.0 0.0 15 61
r 0.72624 1 2 tcp 1040 ---A--- 0 0.0 2.0 16 55
+ 0.72624 2 1 ack 40 ------- 0 2.0 0.0 17 62
- 0.72624 2 1 ack 40 ------- 0 2.0 0.0 17 62
r 0.730935 1 0 ack 40 ------- 0 2.0 0.0 15 61
r 0.736865 2 1 ack 40 ------- 0 2.0 0.0 17 62
+ 0.736865 1 0 ack 40 ------- 0 2.0 0.0 17 62
- 0.736865 1 0 ack 40 ------- 0 2.0 0.0 17 62
r 0.747185 1 0 ack 40 ------- 0 2.0 0.0 17 62
+ 0.747185 0 1 tcp 1040 ------- 0 0.0 2.0 18 63
- 0.747185 0 1 tcp 1040 ------- 0 0.0 2.0 18 63
+ 0.747185 0 1 tcp 1040 ------- 0 0.0 2.0 19 64
- 0.755505 0 1 tcp 1040 ------- 0 0.0 2.0 19 64
r 0.765505 0 1 tcp 1040 ------- 0 0.0 2.0 18 63
+ 0.765505 1 2 tcp 1040 ------- 0 0.0 2.0 18 63
- 0.765505 1 2 tcp 1040 ------- 0 0.0 2.0 18 63
r 0.773825 0 1 tcp 1040 ------- 0 0.0 2.0 19 64
+ 0.773825 1 2 tcp 1040 ------- 0 0.0 2.0 19 64
- 0.781755 1 2 tcp 1040 ------- 0 0.0 2.0 19 64
r 0.791755 1 2 tcp 1040 ------- 0 0.0 2.0 18 63
+ 0.791755 2 1 ack 40 ------- 0 2.0 0.0 19 65
- 0.791755 2 1 ack 40 ------- 0 2.0 0.0 19 65
r 0.80238 2 1 ack 40 ------- 0 2.0 0.0 19 65
+ 0.80238 1 0 ack 40 ------- 0 2.0 0.0 19 65
- 0.80238 1 0 ack 40 ------- 0 2.0 0.0 19 65
r 0.808005 1 2 tcp 1040 ------- 0 0.0 2.0 19 64
+ 0.808005 2 1 ack 40 ------- 0 2.0 0.0 19 66
- 0.808005 2 1 ack 40 ------- 0 2.0 0.0 19 66
r 0.8127 1 0 ack 40 ------- 0 2.0 0.0 19 65
+ 0.8127 0 1 tcp 1040 ------- 0 0.0 2.0 20 67
- 0.8127 0 1 tcp 1040 ------- 0 0.0 2.0 20 67
+ 0.8127 0 1 tcp 1040 ------- 0 0.0 2.0 21 68
+ 0.8127 0 1 tcp 1040 ------- 0 0.0 2.0 22 69
r 0.81863 2 1 ack 40 ------- 0 2.0 0.0 19 66
+ 0.81863 1 0 ack 40 ------- 0 2.0 0.0 19 66
- 0.81863 1 0 ack 40 ------- 0 2.0 0.0 19 66
- 0.82102 0 1 tcp 1040 ------- 0 0.0 2.0 21 68
r 0.82895 1 0 ack 40 ------- 0 2.0 0.0 19 66
+ 0.82895 0 1 tcp 1040 ------- 0 0.0 2.0 23 70
- 0.82934 0 1 tcp 1040 ------- 0 0.0 2.0 22 69
r 0.83102 0 1 tcp 1040 ------- 0 0.0 2.0 20 67
+ 0.83102 1 2 tcp 1040 ------- 0 0.0 2.0 20 67
- 0.83102 1 2 tcp 1040 ------- 0 0.0 2.0 20 67
- 0.83766 0 1 tcp 1040 ------- 0 0.0 2.0 23 70
r 0.83934 0 1 tcp 1040 ------- 0 0.0 2.0 21 68
+ 0.83934 1 2 tcp 1040 ------- 0 0.0 2.0 21 68
- 0.84727 1 2 tcp 1040 ------- 0 0.0 2.0 21 68
r 0.84766 0 1 tcp 1040 ------- 0 0.0 2.0 22 69
+ 0.84766 1 2 tcp 1040 ------- 0 0.0 2.0 22 69
r 0.85598 0 1 tcp 1040 ------- 0 0.0 2.0 23 70
+ 0.85598 1 2 tcp 1040 ------- 0 0.0 2.0 23 70
r 0.85727 1 2 tcp 1040 ------- 0 0.0 2.0 20 67
+ 0.85727 2 1 ack 40 ------- 0 2.0 0.0 21 71
- 0.85727 2 1 ack 40 ------- 0 2.0 0.0 21 71
- 0.86352 1 2 tcp 1040 ------- 0 0.0 2.0 22 69
r 0.867895 2 1 ack 40 ------- 0 2.0 0.0 21 71
+ 0.867895 1 0 ack 40 ------- 0 2.0 0.0 21 71
- 0.867895 1 0 ack 40 ------- 0 2.0 0.0 21 71
r 0.87352 1 2 tcp 1040 ------- 0 0.0 2.0 21 68
+ 0.87352 2 1 ack 40 ------- 0 2.0 0.0 21 72
- 0.87352 2 1 ack 40 ------- 0 2.0 0.0 21 72
r 0.878215 1 0 ack 40 ------- 0 2.0 0.0 21 71
+ 0.878215 0 1 tcp 1040 ------- 0 0.0 2.0 24 73
- 0.878215 0 1 tcp 1040 ------- 0 0.0 2.0 24 73
+ 0.878215 0 1 tcp 1040 ------- 0 0.0 2.0 25 74
- 0.87977 1 2 tcp 1040 ------- 0 0.0 2.0 23 70
r 0.884145 2 1 ack 40 ------- 0 2.0 0.0 21 72
+ 0.884145 1 0 ack 40 ------- 0 2.0 0.0 21 72
- 0.884145 1 0 ack 40 ------- 0 2.0 0.0 21 72
- 0.886535 0 1 tcp 1040 ------- 0 0.0 2.0 25 74
r 0.88977 1 2 tcp 1040 ------- 0 0.0 2.0 22 69
+ 0.88977 2 1 ack 40 ------- 0 2.0 0.0 23 75
- 0.88977 2 1 ack 40 ------- 0 2.0 0.0 23 75
r 0.894465 1 0 ack 40 ------- 0 2.0 0.0 21 72
+ 0.894465 0 1 tcp 1040 ------- 0 0.0 2.0 26 76
- 0.894855 0 1 tcp 1040 ------- 0 0.0 2.0 26 76
r 0.896535 0 1 tcp 1040 ------- 0 0.0 2.0 24 73
+ 0.896535 1 2 tcp 1040 ------- 0 0.0 2.0 24 73
- 0.896535 1 2 tcp 1040 ------- 0 0.0 2.0 24 73
r 0.900395 2 1 ack 40 ------- 0 2.0 0.0 23 75
+ 0.900395 1 0 ack 40 ------- 0 2.0 0.0 23 75
- 0.900395 1 0 ack 40 ------- 0 2.0 0.0 23 75
r 0.904855 0 1 tcp 1040 ------- 0 0.0 2.0 25 74
+ 0.904855 1 2 tcp 1040 ------- 0 0.0 2.0 25 74
r 0.90602 1 2 tcp 1040 ------- 0 0.0 2.0 23 70
+ 0.90602 2 1 ack 40 ------- 0 2.0 0.0 23 77
- 0.90602 2 1 ack 40 ------- 0 2.0 0.0 23 77
r 0.910715 1 0 ack 40 ------- 0 2.0 0.0 23 75
+ 0.910715 0 1 tcp 1040 ------- 0 0.0 2.0 27 78
- 0.910715 0 1 tcp 1040 ------- 0 0.0 2.0 27 78
+ 0.910715 0 1 tcp 1040 ------- 0 0.0 2.0 28 79
- 0.912785 1 2 tcp 1040 ------- 0 0.0 2.0 25 74
r 0.913175 0 1 tcp 1040 ------- 0 0.0 2.0 26 76
+ 0.913175 1 2 tcp 1040 ------- 0 0.0 2.0 26 76
r 0.916645 2 1 ack 40 ------- 0 2.0 0.0 23 77
+ 0.916645 1 0 ack 40 ------- 0 2.0 0.0 23 77
- 0.916645 1 0 ack 40 ------- 0 2.0 0.0 23 77
- 0.919035 0 1 tcp 1040 ------- 0 0.0 2.0 28 79
r 0.922785 1 2 tcp 1040 ------- 0 0.0 2.0 24 73
+ 0.922785 2 1 ack 40 ------- 0 2.0 0.0 25 80
- 0.922785 2 1 ack 40 ------- 0 2.0 0.0 25 80
r 0.926965 1 0 ack 40 ------- 0 2.0 0.0 23 77
+ 0.926965 0 1 tcp 1040 ------- 0 0.0 2.0 29 81
- 0.927355 0 1 tcp 1040 ------- 0 0.0 2.0 29 81
r 0.929035 0 1 tcp 1040 ------- 0 0.0 2.0 27 78
+ 0.929035 1 2 tcp 1040 ------- 0 0.0 2.0 27 78
- 0.929035 1 2 tcp 1040 ------- 0 0.0 2.0 26 76
r 0.93341 2 1 ack 40 ------- 0 2.0 0.0 25 80
+ 0.93341 1 0 ack 40 ------- 0 2.0 0.0 25 80
- 0.93341 1 0 ack 40 ------- 0 2.0 0.0 25 80
r 0.937355 0 1 tcp 1040 ------- 0 0.0 2.0 28 79
+ 0.937355 1 2 tcp 1040 ------- 0 0.0 2.0 28 79
r 0.939035 1 2 tcp 1040 ------- 0 0.0 2.0 25 74
+ 0.939035 2 1 ack 40 ------- 0 2.0 0.0 25 82
- 0.939035 2 1 ack 40 ------- 0 2.0 0.0 25 82
r 0.94373 1 0 ack 40 ------- 0 2.0 0.0 25 80
+ 0.94373 0 1 tcp 1040 ------- 0 0.0 2.0 30 83
- 0.94373 0 1 tcp 1040 ------- 0 0.0 2.0 30 83
+ 0.94373 0 1 tcp 1040 ------- 0 0.0 2.0 31 84
- 0.945285 1 2 tcp 1040 ------- 0 0.0 2.0 27 78
r 0.945675 0 1 tcp 1040 ------- 0 0.0 2.0 29 81
+ 0.945675 1 2 tcp 1040 ------- 0 0.0 2.0 29 81
r 0.94966 2 1 ack 40 ------- 0 2.0 0.0 25 82
+ 0.94966 1 0 ack 40 ------- 0 2.0 0.0 25 82
- 0.94966 1 0 ack 40 ------- 0 2.0 0.0 25 82
- 0.95205 0 1 tcp 1040 ------- 0 0.0 2.0 31 84
r 0.955285 1 2 tcp 1040 ------- 0 0.0 2.0 26 76
+ 0.955285 2 1 ack 40 ------- 0 2.0 0.0 27 85
- 0.955285 2 1 ack 40 ------- 0 2.0 0.0 27 85
r 0.95998 1 0 ack 40 ------- 0 2.0 0.0 25 82
+ 0.95998 0 1 tcp 1040 ------- 0 0.0 2.0 32 86
- 0.96037 0 1 tcp 1040 ------- 0 0.0 2.0 32 86
- 0.961535 1 2 tcp 1040 ------- 0 0.0 2.0 28 79
r 0.96205 0 1 tcp 1040 ------- 0 0.0 2.0 30 83
+ 0.96205 1 2 tcp 1040 ------- 0 0.0 2.0 30 83
r 0.96591 2 1 ack 40 ------- 0 2.0 0.0 27 85
+ 0.96591 1 0 ack 40 ------- 0 2.0 0.0 27 85
- 0.96591 1 0 ack 40 ------- 0 2.0 0.0 27 85
r 0.97037 0 1 tcp 1040 ------- 0 0.0 2.0 31 84
+ 0.97037 1 2 tcp 1040 ------- 0 0.0 2.0 31 84
r 0.971535 1 2 tcp 1040 ------- 0 0.0 2.0 27 78
+ 0.971535 2 1 ack 40 ------- 0 2.0 0.0 27 87
- 0.971535 2 1 ack 40 ------- 0 2.0 0.0 27 87
r 0.97623 1 0 ack 40 ------- 0 2.0 0.0 27 85
+ 0.97623 0 1 tcp 1040 ------- 0 0.0 2.0 33 88
- 0.97623 0 1 tcp 1040 ------- 0 0.0 2.0 33 88
+ 0.97623 0 1 tcp 1040 ------- 0 0.0 2.0 34 89
- 0.977785 1 2 tcp 1040 ------- 0 0.0 2.0 29 81
r 0.97869 0 1 tcp 1040 ------- 0 0.0 2.0 32 86
+ 0.97869 1 2 tcp 1040 ------- 0 0.0 2.0 32 86
r 0.98216 2 1 ack 40 ------- 0 2.0 0.0 27 87
+ 0.98216 1 0 ack 40 ------- 0 2.0 0.0 27 87
- 0.98216 1 0 ack 40 ------- 0 2.0 0.0 27 87
- 0.98455 0 1 tcp 1040 ------- 0 0.0 2.0 34 89
r 0.987785 1 2 tcp 1040 ------- 0 0.0 2.0 28 79
+ 0.987785 2 1 ack 40 ------- 0 2.0 0.0 29 90
- 0.987785 2 1 ack 40 ------- 0 2.0 0.0 29 90
r 0.99248 1 0 ack 40 ------- 0 2.0 0.0 27 87
+ 0.99248 0 1 tcp 1040 ------- 0 0.0 2.0 35 91
- 0.99287 0 1 tcp 1040 ------- 0 0.0 2.0 35 91
- 0.994035 1 2 tcp 1040 ------- 0 0.0 2.0 30 83
r 0.99455 0 1 tcp 1040 ------- 0 0.0 2.0 33 88
+ 0.99455 1 2 tcp 1040 ------- 0 0.0 2.0 33 88
r 0.99841 2 1 ack 40 ------- 0 2.0 0.0 29 90
+ 0.99841 1 0 ack 40 ------- 0 2.0 0.0 29 90
- 0.99841 1 0 ack 40 ------- 0 2.0 0.0 29 90
r 1.00287 0 1 tcp 1040 ------- 0 0.0 2.0 34 89
+ 1.00287 1 2 tcp 1040 ------- 0 0.0 2.0 34 89
r 1.004035 1 2 tcp 1040 ------- 0 0.0 2.0 29 81
+ 1.004035 2 1 ack 40 ------- 0 2.0 0.0 29 92
- 1.004035 2 1 ack 40 ------- 0 2.0 0.0 29 92
r 1.00873 1 0 ack 40 ------- 0 2.0 0.0 29 90
+ 1.00873 0 1 tcp 1040 ------- 0 0.0 2.0 36 93
- 1.00873 0 1 tcp 1040 ------- 0 0.0 2.0 36 93
+ 1.00873 0 1 tcp 1040 ------- 0 0.0 2.0 37 94
- 1.010285 1 2 tcp 1040 ------- 0 0.0 2.0 31 84
r 1.01119 0 1 tcp 1040 ------- 0 0.0 2.0 35 91
+ 1.01119 1 2 tcp 1040 ------- 0 0.0 2.0 35 91
r 1.01466 2 1 ack 40 ------- 0 2.0 0.0 29 92
+ 1.01466 1 0 ack 40 ------- 0 2.0 0.0 29 92
- 1.01466 1 0 ack 40 ------- 0 2.0 0.0 29 92
- 1.01705 0 1 tcp 1040 ------- 0 0.0 2.0 37 94
r 1.020285 1 2 tcp 1040 ------- 0 0.0 2.0 30 83
+ 1.020285 2 1 ack 40 ------- 0 2.0 0.0 31 95
- 1.020285 2 1 ack 40 ------- 0 2.0 0.0 31 95
r 1.02498 1 0 ack 40 ------- 0 2.0 0.0 29 92
+ 1.02498 0 1 tcp 1040 ------- 0 0.0 2.0 38 96
- 1.02537 0 1 tcp 1040 ------- 0 0.0 2.0 38 96
- 1.026535 1 2 tcp 1040 ------- 0 0.0 2.0 32 86
r 1.02705 0 1 tcp 1040 ------- 0 0.0 2.0 36 93
+ 1.02705 1 2 tcp 1040 ------- 0 0.0 2.0 36 93
r 1.03091 2 1 ack 40 ------- 0 2.0 0.0 31 95
+ 1.03091 1 0 ack 40 ------- 0 2.0 0.0 31 95
- 1.03091 1 0 ack 40 ------- 0 2.0 0.0 31 95
r 1.03537 0 1 tcp 1040 ------- 0 0.0 2.0 37 94
+ 1.03537 1 2 tcp 1040 ------- 0 0.0 2.0 37 94
d 1.03537 1 2 tcp 1040 ------- 0 0.0 2.0 37 94
r 1.036535 1 2 tcp 1040 ------- 0 0.0 2.0 31 84
+ 1.036535 2 1 ack 40 ------- 0 2.0 0.0 31 97
- 1.036535 2 1 ack 40 ------- 0 2.0 0.0 31 97
r 1.04123 1 0 ack 40 ------- 0 2.0 0.0 31 95
+ 1.04123 0 1 tcp 1040 ------- 0 0.0 2.0 39 98
- 1.04123 0 1 tcp 1040 ------- 0 0.0 2.0 39 98
- 1.042785 1 2 tcp 1040 ------- 0 0.0 2.0 33 88
r 1.04369 0 1 tcp 1040 ------- 0 0.0 2.0 38 96
+ 1.04369 1 2 tcp 1040 ------- 0 0.0 2.0 38 96
r 1.04716 2 1 ack 40 ------- 0 2.0 0.0 31 97
+ 1.04716 1 0 ack 40 ------- 0 2.0 0.0 31 97
- 1.04716 1 0 ack 40 ------- 0 2.0 0.0 31 97
r 1.052785 1 2 tcp 1040 ------- 0 0.0 2.0 32 86
+ 1.052785 2 1 ack 40 ------- 0 2.0 0.0 34 99
- 1.052785 2 1 ack 40 ------- 0 2.0 0.0 34 99
r 1.05748 1 0 ack 40 ------- 0 2.0 0.0 31 97
+ 1.05748 0 1 tcp 1040 ------- 0 0.0 2.0 40 100
- 1.05748 0 1 tcp 1040 ------- 0 0.0 2.0 40 100
- 1.059035 1 2 tcp 1040 ------- 0 0.0 2.0 34 89
r 1.05955 0 1 tcp 1040 ------- 0 0.0 2.0 39 98
+ 1.05955 1 2 tcp 1040 ------- 0 0.0 2.0 39 98
r 1.06341 2 1 ack 40 ------- 0 2.0 0.0 34 99
+ 1.06341 1 0 ack 40 ------- 0 2.0 0.0 34 99
- 1.06341 1 0 ack 40 ------- 0 2.0 0.0 34 99
r 1.069035 1 2 tcp 1040 ------- 0 0.0 2.0 33 88
+ 1.069035 2 1 ack 40 ------- 0 2.0 0.0 34 101
- 1.069035 2 1 ack 40 ------- 0 2.0 0.0 34 101
r 1.07373 1 0 ack 40 ------- 0 2.0 0.0 34 99
+ 1.07373 0 1 tcp 1040 ------- 0 0.0 2.0 41 102
- 1.07373 0 1 tcp 1040 ------- 0 0.0 2.0 41 102
+ 1.07373 0 1 tcp 1040 ------- 0 0.0 2.0 42 103
- 1.075285 1 2 tcp 1040 ------- 0 0.0 2.0 35 91
r 1.0758 0 1 tcp 1040 ------- 0 0.0 2.0 40 100
+ 1.0758 1 2 tcp 1040 ------- 0 0.0 2.0 40 100
r 1.07966 2 1 ack 40 ------- 0 2.0 0.0 34 101
+ 1.07966 1 0 ack 40 ------- 0 2.0 0.0 34 101
- 1.07966 1 0 ack 40 ------- 0 2.0 0.0 34 101
- 1.08205 0 1 tcp 1040 ------- 0 0.0 2.0 42 103
r 1.085285 1 2 tcp 1040 ------- 0 0.0 2.0 34 89
+ 1.085285 2 1 ack 40 ------- 0 2.0 0.0 34 104
- 1.085285 2 1 ack 40 ------- 0 2.0 0.0 34 104
r 1.08998 1 0 ack 40 ------- 0 2.0 0.0 34 101
+ 1.08998 0 1 tcp 1040 ------- 0 0.0 2.0 43 105
- 1.09037 0 1 tcp 1040 ------- 0 0.0 2.0 43 105
- 1.091535 1 2 tcp 1040 ------- 0 0.0 2.0 36 93
r 1.09205 0 1 tcp 1040 ------- 0 0.0 2.0 41 102
+ 1.09205 1 2 tcp 1040 ------- 0 0.0 2.0 41 102
r 1.09591 2 1 ack 40 ------- 0 2.0 0.0 34 104
+ 1.09591 1 0 ack 40 ------- 0 2.0 0.0 34 104
- 1.09591 1 0 ack 40 ------- 0 2.0 0.0 34 104
r 1.10037 0 1 tcp 1040 ------- 0 0.0 2.0 42 103
+ 1.10037 1 2 tcp 1040 ------- 0 0.0 2.0 42 103
d 1.10037 1 2 tcp 1040 ------- 0 0.0 2.0 42 103
r 1.101535 1 2 tcp 1040 ------- 0 0.0 2.0 35 91
+ 1.101535 2 1 ack 40 ------- 0 2.0 0.0 35 106
- 1.101535 2 1 ack 40 ------- 0 2.0 0.0 35 106
r 1.10623 1 0 ack 40 ------- 0 2.0 0.0 34 104
+ 1.10623 0 1 tcp 1040 ------- 0 0.0 2.0 44 107
- 1.10623 0 1 tcp 1040 ------- 0 0.0 2.0 44 107
- 1.107785 1 2 tcp 1040 ------- 0 0.0 2.0 38 96
r 1.10869 0 1 tcp 1040 ------- 0 0.0 2.0 43 105
+ 1.10869 1 2 tcp 1040 ------- 0 0.0 2.0 43 105
r 1.11216 2 1 ack 40 ------- 0 2.0 0.0 35 106
+ 1.11216 1 0 ack 40 ------- 0 2.0 0.0 35 106
- 1.11216 1 0 ack 40 ------- 0 2.0 0.0 35 106
r 1.117785 1 2 tcp 1040 ------- 0 0.0 2.0 36 93
+ 1.117785 2 1 ack 40 ------- 0 2.0 0.0 36 108
- 1.117785 2 1 ack 40 ------- 0 2.0 0.0 36 108
r 1.12248 1 0 ack 40 ------- 0 2.0 0.0 35 106
- 1.124035 1 2 tcp 1040 ------- 0 0.0 2.0 39 98
r 1.12455 0 1 tcp 1040 ------- 0 0.0 2.0 44 107
+ 1.12455 1 2 tcp 1040 ------- 0 0.0 2.0 44 107
r 1.12841 2 1 ack 40 ------- 0 2.0 0.0 36 108
+ 1.12841 1 0 ack 40 ------- 0 2.0 0.0 36 108
- 1.12841 1 0 ack 40 ------- 0 2.0 0.0 36 108
r 1.134035 1 2 tcp 1040 ------- 0 0.0 2.0 38 96
+ 1.134035 2 1 ack 40 ------- 0 2.0 0.0 36 109
- 1.134035 2 1 ack 40 ------- 0 2.0 0.0 36 109
r 1.13873 1 0 ack 40 ------- 0 2.0 0.0 36 108
- 1.140285 1 2 tcp 1040 ------- 0 0.0 2.0 40 100
r 1.14466 2 1 ack 40 ------- 0 2.0 0.0 36 109
+ 1.14466 1 0 ack 40 ------- 0 2.0 0.0 36 109
- 1.14466 1 0 ack 40 ------- 0 2.0 0.0 36 109
r 1.150285 1 2 tcp 1040 ------- 0 0.0 2.0 39 98
+ 1.150285 2 1 ack 40 ------- 0 2.0 0.0 36 110
- 1.150285 2 1 ack 40 ------- 0 2.0 0.0 36 110
r 1.15498 1 0 ack 40 ------- 0 2.0 0.0 36 109
+ 1.15498 0 1 tcp 1040 ------- 0 0.0 2.0 45 111
- 1.15498 0 1 tcp 1040 ------- 0 0.0 2.0 45 111
- 1.156535 1 2 tcp 1040 ------- 0 0.0 2.0 41 102
r 1.16091 2 1 ack 40 ------- 0 2.0 0.0 36 110