+ 0.1 1 2 cbr 210 ------- 0 1.0 3.0 0 0
- 0.1 1 2 cbr 210 ------- 0 1.0 3.0 0 0
+ 0.10375 1 2 cbr 210 ------- 0 1.0 3.0 1 1
- 0.1042 1 2 cbr 210 ------- 0 1.0 3.0 1 1
+ 0.1075 1 2 cbr 210 ------- 0 1.0 3.0 2 2
- 0.1084 1 2 cbr 210 ------- 0 1.0 3.0 2 2
+ 0.11125 1 2 cbr 210 ------- 0 1.0 3.0 3 3
- 0.1126 1 2 cbr 210 ------- 0 1.0 3.0 3 3
r 0.1142 1 2 cbr 210 ------- 0 1.0 3.0 0 0
+ 0.1142 2 3 cbr 210 ------- 0 1.0 3.0 0 0
- 0.1142 2 3 cbr 210 ------- 0 1.0 3.0 0 0
+ 0.115 1 2 cbr 210 ------- 0 1.0 3.0 4 4
- 0.1168 1 2 cbr 210 ------- 0 1.0 3.0 4 4
r 0.1184 1 2 cbr 210 ------- 0 1.0 3.0 1 1
+ 0.1184 2 3 cbr 210 ------- 0 1.0 3.0 1 1
- 0.1184 2 3 cbr 210 ------- 0 1.0 3.0 1 1
+ 0.11875 1 2 cbr 210 ------- 0 1.0 3.0 5 5
- 0.121 1 2 cbr 210 ------- 0 1.0 3.0 5 5
+ 0.1225 1 2 cbr 210 ------- 0 1.0 3.0 6 6
r 0.1226 1 2 cbr 210 ------- 0 1.0 3.0 2 2
+ 0.1226 2 3 cbr 210 ------- 0 1.0 3.0 2 2
- 0.1226 2 3 cbr 210 ------- 0 1.0 3.0 2 2
r 0.124368 2 3 cbr 210 ------- 0 1.0 3.0 0 0
- 0.1252 1 2 cbr 210 ------- 0 1.0 3.0 6 6
+ 0.12625 1 2 cbr 210 ------- 0 1.0 3.0 7 7
r 0.1268 1 2 cbr 210 ------- 0 1.0 3.0 3 3
+ 0.1268 2 3 cbr 210 ------- 0 1.0 3.0 3 3
- 0.1268 2 3 cbr 210 ------- 0 1.0 3.0 3 3
r 0.128568 2 3 cbr 210 ------- 0 1.0 3.0 1 1
- 0.1294 1 2 cbr 210 ------- 0 1.0 3.0 7 7
+ 0.13 1 2 cbr 210 ------- 0 1.0 3.0 8 8
r 0.131 1 2 cbr 210 ------- 0 1.0 3.0 4 4
+ 0.131 2 3 cbr 210 ------- 0 1.0 3.0 4 4
- 0.131 2 3 cbr 210 ------- 0 1.0 3.0 4 4
r 0.132768 2 3 cbr 210 ------- 0 1.0 3.0 2 2
- 0.1336 1 2 cbr 210 ------- 0 1.0 3.0 8 8
+ 0.13375 1 2 cbr 210 ------- 0 1.0 3.0 9 9
r 0.1352 1 2 cbr 210 ------- 0 1.0 3.0 5 5
+ 0.1352 2 3 cbr 210 ------- 0 1.0 3.0 5 5
- 0.1352 2 3 cbr 210 ------- 0 1.0 3.0 5 5
r 0.136968 2 3 cbr 210 ------- 0 1.0 3.0 3 3
+ 0.1375 1 2 cbr 210 ------- 0 1.0 3.0 10 10
- 0.1378 1 2 cbr 210 ------- 0 1.0 3.0 9 9
r 0.1394 1 2 cbr 210 ------- 0 1.0 3.0 6 6
+ 0.1394 2 3 cbr 210 ------- 0 1.0 3.0 6 6
- 0.1394 2 3 cbr 210 ------- 0 1.0 3.0 6 6
r 0.141168 2 3 cbr 210 ------- 0 1.0 3.0 4 4
+ 0.14125 1 2 cbr 210 ------- 0 1.0 3.0 11 11
- 0.142 1 2 cbr 210 ------- 0 1.0 3.0 10 10
r 0.1436 1 2 cbr 210 ------- 0 1.0 3.0 7 7
+ 0.1436 2 3 cbr 210 ------- 0 1.0 3.0 7 7
- 0.1436 2 3 cbr 210 ------- 0 1.0 3.0 7 7
+ 0.145 1 2 cbr 210 ------- 0 1.0 3.0 12 12
r 0.145368 2 3 cbr 210 ------- 0 1.0 3.0 5 5
- 0.1462 1 2 cbr 210 ------- 0 1.0 3.0 11 11
r 0.1478 1 2 cbr 210 ------- 0 1.0 3.0 8 8
+ 0.1478 2 3 cbr 210 ------- 0 1.0 3.0 8 8
- 0.1478 2 3 cbr 210 ------- 0 1.0 3.0 8 8
+ 0.14875 1 2 cbr 210 ------- 0 1.0 3.0 13 13
r 0.149568 2 3 cbr 210 ------- 0 1.0 3.0 6 6
- 0.1504 1 2 cbr 210 ------- 0 1.0 3.0 12 12
r 0.152 1 2 cbr 210 ------- 0 1.0 3.0 9 9
+ 0.152 2 3 cbr 210 ------- 0 1.0 3.0 9 9
- 0.152 2 3 cbr 210 ------- 0 1.0 3.0 9 9
+ 0.1525 1 2 cbr 210 ------- 0 1.0 3.0 14 14
r 0.153768 2 3 cbr 210 ------- 0 1.0 3.0 7 7
- 0.1546 1 2 cbr 210 ------- 0 1.0 3.0 13 13
r 0.1562 1 2 cbr 210 ------- 0 1.0 3.0 10 10
+ 0.1562 2 3 cbr 210 ------- 0 1.0 3.0 10 10
- 0.1562 2 3 cbr 210 ------- 0 1.0 3.0 10 10
+ 0.15625 1 2 cbr 210 ------- 0 1.0 3.0 15 15
r 0.157968 2 3 cbr 210 ------- 0 1.0 3.0 8 8
- 0.1588 1 2 cbr 210 ------- 0 1.0 3.0 14 14
+ 0.16 1 2 cbr 210 ------- 0 1.0 3.0 16 16
r 0.1604 1 2 cbr 210 ------- 0 1.0 3.0 11 11
+ 0.1604 2 3 cbr 210 ------- 0 1.0 3.0 11 11
- 0.1604 2 3 cbr 210 ------- 0 1.0 3.0 11 11
r 0.162168 2 3 cbr 210 ------- 0 1.0 3.0 9 9
- 0.163 1 2 cbr 210 ------- 0 1.0 3.0 15 15
+ 0.16375 1 2 cbr 210 ------- 0 1.0 3.0 17 17
r 0.1646 1 2 cbr 210 ------- 0 1.0 3.0 12 12
+ 0.1646 2 3 cbr 210 ------- 0 1.0 3.0 12 12
- 0.1646 2 3 cbr 210 ------- 0 1.0 3.0 12 12
r 0.166368 2 3 cbr 210 ------- 0 1.0 3.0 10 10
- 0.1672 1 2 cbr 210 ------- 0 1.0 3.0 16 16
+ 0.1675 1 2 cbr 210 ------- 0 1.0 3.0 18 18
r 0.1688 1 2 cbr 210 ------- 0 1.0 3.0 13 13
+ 0.1688 2 3 cbr 210 ------- 0 1.0 3.0 13 13
- 0.1688 2 3 cbr 210 ------- 0 1.0 3.0 13 13
r 0.170568 2 3 cbr 210 ------- 0 1.0 3.0 11 11
+ 0.17125 1 2 cbr 210 ------- 0 1.0 3.0 19 19
- 0.1714 1 2 cbr 210 ------- 0 1.0 3.0 17 17
r 0.173 1 2 cbr 210 ------- 0 1.0 3.0 14 14
+ 0.173 2 3 cbr 210 ------- 0 1.0 3.0 14 14
- 0.173 2 3 cbr 210 ------- 0 1.0 3.0 14 14
r 0.174768 2 3 cbr 210 ------- 0 1.0 3.0 12 12
+ 0.175 1 2 cbr 210 ------- 0 1.0 3.0 20 20
- 0.1756 1 2 cbr 210 ------- 0 1.0 3.0 18 18
r 0.1772 1 2 cbr 210 ------- 0 1.0 3.0 15 15
+ 0.1772 2 3 cbr 210 ------- 0 1.0 3.0 15 15
- 0.1772 2 3 cbr 210 ------- 0 1.0 3.0 15 15
+ 0.17875 1 2 cbr 210 ------- 0 1.0 3.0 21 21
r 0.178968 2 3 cbr 210 ------- 0 1.0 3.0 13 13
- 0.1798 1 2 cbr 210 ------- 0 1.0 3.0 19 19
r 0.1814 1 2 cbr 210 ------- 0 1.0 3.0 16 16
+ 0.1814 2 3 cbr 210 ------- 0 1.0 3.0 16 16
- 0.1814 2 3 cbr 210 ------- 0 1.0 3.0 16 16
+ 0.1825 1 2 cbr 210 ------- 0 1.0 3.0 22 22
r 0.183168 2 3 cbr 210 ------- 0 1.0 3.0 14 14
- 0.184 1 2 cbr 210 ------- 0 1.0 3.0 20 20
r 0.1856 1 2 cbr 210 ------- 0 1.0 3.0 17 17
+ 0.1856 2 3 cbr 210 ------- 0 1.0 3.0 17 17
- 0.1856 2 3 cbr 210 ------- 0 1.0 3.0 17 17
+ 0.18625 1 2 cbr 210 ------- 0 1.0 3.0 23 23
r 0.187368 2 3 cbr 210 ------- 0 1.0 3.0 15 15
- 0.1882 1 2 cbr 210 ------- 0 1.0 3.0 21 21
r 0.1898 1 2 cbr 210 ------- 0 1.0 3.0 18 18
+ 0.1898 2 3 cbr 210 ------- 0 1.0 3.0 18 18
- 0.1898 2 3 cbr 210 ------- 0 1.0 3.0 18 18
+ 0.19 1 2 cbr 210 ------- 0 1.0 3.0 24 24
r 0.191568 2 3 cbr 210 ------- 0 1.0 3.0 16 16
- 0.1924 1 2 cbr 210 ------- 0 1.0 3.0 22 22
+ 0.19375 1 2 cbr 210 ------- 0 1.0 3.0 25 25
r 0.194 1 2 cbr 210 ------- 0 1.0 3.0 19 19
+ 0.194 2 3 cbr 210 ------- 0 1.0 3.0 19 19
- 0.194 2 3 cbr 210 ------- 0 1.0 3.0 19 19
r 0.195768 2 3 cbr 210 ------- 0 1.0 3.0 17 17
- 0.1966 1 2 cbr 210 ------- 0 1.0 3.0 23 23
+ 0.1975 1 2 cbr 210 ------- 0 1.0 3.0 26 26
r 0.1982 1 2 cbr 210 ------- 0 1.0 3.0 20 20
+ 0.1982 2 3 cbr 210 ------- 0 1.0 3.0 20 20
- 0.1982 2 3 cbr 210 ------- 0 1.0 3.0 20 20
r 0.199968 2 3 cbr 210 ------- 0 1.0 3.0 18 18
+ 0.2 0 2 tcp 40 ------- 0 0.0 3.1 0 27
- 0.2 0 2 tcp 40 ------- 0 0.0 3.1 0 27
- 0.2008 1 2 cbr 210 ------- 0 1.0 3.0 24 24
+ 0.20125 1 2 cbr 210 ------- 0 1.0 3.0 27 28
r 0.2024 1 2 cbr 210 ------- 0 1.0 3.0 21 21
+ 0.2024 2 3 cbr 210 ------- 0 1.0 3.0 21 21
- 0.2024 2 3 cbr 210 ------- 0 1.0 3.0 21 21
r 0.204168 2 3 cbr 210 ------- 0 1.0 3.0 19 19
+ 0.205 1 2 cbr 210 ------- 0 1.0 3.0 28 29
- 0.205 1 2 cbr 210 ------- 0 1.0 3.0 25 25
r 0.2066 1 2 cbr 210 ------- 0 1.0 3.0 22 22
+ 0.2066 2 3 cbr 210 ------- 0 1.0 3.0 22 22
- 0.2066 2 3 cbr 210 ------- 0 1.0 3.0 22 22
r 0.208368 2 3 cbr 210 ------- 0 1.0 3.0 20 20
+ 0.20875 1 2 cbr 210 ------- 0 1.0 3.0 29 30
- 0.2092 1 2 cbr 210 ------- 0 1.0 3.0 26 26
r 0.210032 0 2 tcp 40 ------- 0 0.0 3.1 0 27
+ 0.210032 2 3 tcp 40 ------- 0 0.0 3.1 0 27
- 0.210032 2 3 tcp 40 ------- 0 0.0 3.1 0 27
r 0.2108 1 2 cbr 210 ------- 0 1.0 3.0 23 23
+ 0.2108 2 3 cbr 210 ------- 0 1.0 3.0 23 23
- 0.2108 2 3 cbr 210 ------- 0 1.0 3.0 23 23
+ 0.2125 1 2 cbr 210 ------- 0 1.0 3.0 30 31
r 0.212568 2 3 cbr 210 ------- 0 1.0 3.0 21 21
- 0.2134 1 2 cbr 210 ------- 0 1.0 3.0 27 28
r 0.215 1 2 cbr 210 ------- 0 1.0 3.0 24 24
+ 0.215 2 3 cbr 210 ------- 0 1.0 3.0 24 24
- 0.215 2 3 cbr 210 ------- 0 1.0 3.0 24 24
+ 0.21625 1 2 cbr 210 ------- 0 1.0 3.0 31 32
r 0.216768 2 3 cbr 210 ------- 0 1.0 3.0 22 22
- 0.2176 1 2 cbr 210 ------- 0 1.0 3.0 28 29
r 0.2192 1 2 cbr 210 ------- 0 1.0 3.0 25 25
+ 0.2192 2 3 cbr 210 ------- 0 1.0 3.0 25 25
- 0.2192 2 3 cbr 210 ------- 0 1.0 3.0 25 25
+ 0.22 1 2 cbr 210 ------- 0 1.0 3.0 32 33
r 0.220064 2 3 tcp 40 ------- 0 0.0 3.1 0 27
+ 0.220064 3 2 ack 40 ------- 0 3.1 0.0 0 34
- 0.220064 3 2 ack 40 ------- 0 3.1 0.0 0 34
r 0.220968 2 3 cbr 210 ------- 0 1.0 3.0 23 23
- 0.2218 1 2 cbr 210 ------- 0 1.0 3.0 29 30
r 0.2234 1 2 cbr 210 ------- 0 1.0 3.0 26 26
+ 0.2234 2 3 cbr 210 ------- 0 1.0 3.0 26 26
- 0.2234 2 3 cbr 210 ------- 0 1.0 3.0 26 26
+ 0.22375 1 2 cbr 210 ------- 0 1.0 3.0 33 35
r 0.225168 2 3 cbr 210 ------- 0 1.0 3.0 24 24
- 0.226 1 2 cbr 210 ------- 0 1.0 3.0 30 31
+ 0.2275 1 2 cbr 210 ------- 0 1.0 3.0 34 36
r 0.2276 1 2 cbr 210 ------- 0 1.0 3.0 27 28
+ 0.2276 2 3 cbr 210 ------- 0 1.0 3.0 27 28
- 0.2276 2 3 cbr 210 ------- 0 1.0 3.0 27 28
r 0.229368 2 3 cbr 210 ------- 0 1.0 3.0 25 25
r 0.230096 3 2 ack 40 ------- 0 3.1 0.0 0 34
+ 0.230096 2 0 ack 40 ------- 0 3.1 0.0 0 34
- 0.230096 2 0 ack 40 ------- 0 3.1 0.0 0 34
- 0.2302 1 2 cbr 210 ------- 0 1.0 3.0 31 32
+ 0.23125 1 2 cbr 210 ------- 0 1.0 3.0 35 37
r 0.2318 1 2 cbr 210 ------- 0 1.0 3.0 28 29
+ 0.2318 2 3 cbr 210 ------- 0 1.0 3.0 28 29
- 0.2318 2 3 cbr 210 ------- 0 1.0 3.0 28 29
r 0.233568 2 3 cbr 210 ------- 0 1.0 3.0 26 26
- 0.2344 1 2 cbr 210 ------- 0 1.0 3.0 32 33
+ 0.235 1 2 cbr 210 ------- 0 1.0 3.0 36 38
r 0.236 1 2 cbr 210 ------- 0 1.0 3.0 29 30
+ 0.236 2 3 cbr 210 ------- 0 1.0 3.0 29 30
- 0.236 2 3 cbr 210 ------- 0 1.0 3.0 29 30
r 0.237768 2 3 cbr 210 ------- 0 1.0 3.0 27 28
- 0.2386 1 2 cbr 210 ------- 0 1.0 3.0 33 35
+ 0.23875 1 2 cbr 210 ------- 0 1.0 3.0 37 39
r 0.240128 2 0 ack 40 ------- 0 3.1 0.0 0 34
+ 0.240128 0 2 tcp 1040 ------- 0 0.0 3.1 1 40
- 0.240128 0 2 tcp 1040 ------- 0 0.0 3.1 1 40
+ 0.240128 0 2 tcp 1040 ------- 0 0.0 3.1 2 41
r 0.2402 1 2 cbr 210 ------- 0 1.0 3.0 30 31
+ 0.2402 2 3 cbr 210 ------- 0 1.0 3.0 30 31
- 0.2402 2 3 cbr 210 ------- 0 1.0 3.0 30 31
- 0.24096 0 2 tcp 1040 ------- 0 0.0 3.1 2 41
r 0.241968 2 3 cbr 210 ------- 0 1.0 3.0 28 29
+ 0.2425 1 2 cbr 210 ------- 0 1.0 3.0 38 42
- 0.2428 1 2 cbr 210 ------- 0 1.0 3.0 34 36
r 0.2444 1 2 cbr 210 ------- 0 1.0 3.0 31 32
+ 0.2444 2 3 cbr 210 ------- 0 1.0 3.0 31 32
- 0.2444 2 3 cbr 210 ------- 0 1.0 3.0 31 32
r 0.246168 2 3 cbr 210 ------- 0 1.0 3.0 29 30
+ 0.24625 1 2 cbr 210 ------- 0 1.0 3.0 39 43
- 0.247 1 2 cbr 210 ------- 0 1.0 3.0 35 37
r 0.2486 1 2 cbr 210 ------- 0 1.0 3.0 32 33
+ 0.2486 2 3 cbr 210 ------- 0 1.0 3.0 32 33
- 0.2486 2 3 cbr 210 ------- 0 1.0 3.0 32 33
+ 0.25 1 2 cbr 210 ------- 0 1.0 3.0 40 44
r 0.250368 2 3 cbr 210 ------- 0 1.0 3.0 30 31
r 0.25096 0 2 tcp 1040 ------- 0 0.0 3.1 1 40
+ 0.25096 2 3 tcp 1040 ------- 0 0.0 3.1 1 40
- 0.25096 2 3 tcp 1040 ------- 0 0.0 3.1 1 40
- 0.2512 1 2 cbr 210 ------- 0 1.0 3.0 36 38
r 0.251792 0 2 tcp 1040 ------- 0 0.0 3.1 2 41
+ 0.251792 2 3 tcp 1040 ------- 0 0.0 3.1 2 41
- 0.251792 2 3 tcp 1040 ------- 0 0.0 3.1 2 41
r 0.2528 1 2 cbr 210 ------- 0 1.0 3.0 33 35
+ 0.2528 2 3 cbr 210 ------- 0 1.0 3.0 33 35
- 0.2528 2 3 cbr 210 ------- 0 1.0 3.0 33 35
+ 0.25375 1 2 cbr 210 ------- 0 1.0 3.0 41 45
r 0.254568 2 3 cbr 210 ------- 0 1.0 3.0 31 32
- 0.2554 1 2 cbr 210 ------- 0 1.0 3.0 37 39
r 0.257 1 2 cbr 210 ------- 0 1.0 3.0 34 36
+ 0.257 2 3 cbr 210 ------- 0 1.0 3.0 34 36
- 0.257 2 3 cbr 210 ------- 0 1.0 3.0 34 36
+ 0.2575 1 2 cbr 210 ------- 0 1.0 3.0 42 46
r 0.258768 2 3 cbr 210 ------- 0 1.0 3.0 32 33
- 0.2596 1 2 cbr 210 ------- 0 1.0 3.0 38 42
r 0.2612 1 2 cbr 210 ------- 0 1.0 3.0 35 37
+ 0.2612 2 3 cbr 210 ------- 0 1.0 3.0 35 37
- 0.2612 2 3 cbr 210 ------- 0 1.0 3.0 35 37
+ 0.26125 1 2 cbr 210 ------- 0 1.0 3.0 43 47
r 0.261792 2 3 tcp 1040 ------- 0 0.0 3.1 1 40
+ 0.261792 3 2 ack 40 ------- 0 3.1 0.0 1 48
- 0.261792 3 2 ack 40 ------- 0 3.1 0.0 1 48
r 0.262624 2 3 tcp 1040 ------- 0 0.0 3.1 2 41
+ 0.262624 3 2 ack 40 ------- 0 3.1 0.0 2 49
- 0.262624 3 2 ack 40 ------- 0 3.1 0.0 2 49
r 0.262968 2 3 cbr 210 ------- 0 1.0 3.0 33 35
- 0.2638 1 2 cbr 210 ------- 0 1.0 3.0 39 43
+ 0.265 1 2 cbr 210 ------- 0 1.0 3.0 44 50
r 0.2654 1 2 cbr 210 ------- 0 1.0 3.0 36 38
+ 0.2654 2 3 cbr 210 ------- 0 1.0 3.0 36 38
- 0.2654 2 3 cbr 210 ------- 0 1.0 3.0 36 38
r 0.267168 2 3 cbr 210 ------- 0 1.0 3.0 34 36
- 0.268 1 2 cbr 210 ------- 0 1.0 3.0 40 44
+ 0.26875 1 2 cbr 210 ------- 0 1.0 3.0 45 51
r 0.2696 1 2 cbr 210 ------- 0 1.0 3.0 37 39
+ 0.2696 2 3 cbr 210 ------- 0 1.0 3.0 37 39
- 0.2696 2 3 cbr 210 ------- 0 1.0 3.0 37 39
r 0.271368 2 3 cbr 210 ------- 0 1.0 3.0 35 37
r 0.271824 3 2 ack 40 ------- 0 3.1 0.0 1 48
+ 0.271824 2 0 ack 40 ------- 0 3.1 0.0 1 48
- 0.271824 2 0 ack 40 ------- 0 3.1 0.0 1 48
- 0.2722 1 2 cbr 210 ------- 0 1.0 3.0 41 45
+ 0.2725 1 2 cbr 210 ------- 0 1.0 3.0 46 52
r 0.272656 3 2 ack 40 ------- 0 3.1 0.0 2 49
+ 0.272656 2 0 ack 40 ------- 0 3.1 0.0 2 49
- 0.272656 2 0 ack 40 ------- 0 3.1 0.0 2 49
r 0.2738 1 2 cbr 210 ------- 0 1.0 3.0 38 42
+ 0.2738 2 3 cbr 210 ------- 0 1.0 3.0 38 42
- 0.2738 2 3 cbr 210 ------- 0 1.0 3.0 38 42
r 0.275568 2 3 cbr 210 ------- 0 1.0 3.0 36 38
+ 0.27625 1 2 cbr 210 ------- 0 1.0 3.0 47 53
- 0.2764 1 2 cbr 210 ------- 0 1.0 3.0 42 46
r 0.278 1 2 cbr 210 ------- 0 1.0 3.0 39 43
+ 0.278 2 3 cbr 210 ------- 0 1.0 3.0 39 43
- 0.278 2 3 cbr 210 ------- 0 1.0 3.0 39 43
r 0.279768 2 3 cbr 210 ------- 0 1.0 3.0 37 39
+ 0.28 1 2 cbr 210 ------- 0 1.0 3.0 48 54
- 0.2806 1 2 cbr 210 ------- 0 1.0 3.0 43 47
r 0.281856 2 0 ack 40 ------- 0 3.1 0.0 1 48
+ 0.281856 0 2 tcp 1040 ------- 0 0.0 3.1 3 55
- 0.281856 0 2 tcp 1040 ------- 0 0.0 3.1 3 55
+ 0.281856 0 2 tcp 1040 ------- 0 0.0 3.1 4 56
r 0.2822 1 2 cbr 210 ------- 0 1.0 3.0 40 44
+ 0.2822 2 3 cbr 210 ------- 0 1.0 3.0 40 44
- 0.2822 2 3 cbr 210 ------- 0 1.0 3.0 40 44
r 0.282688 2 0 ack 40 ------- 0 3.1 0.0 2 49
+ 0.282688 0 2 tcp 1040 ------- 0 0.0 3.1 5 57
+ 0.282688 0 2 tcp 1040 ------- 0 0.0 3.1 6 58
- 0.282688 0 2 tcp 1040 ------- 0 0.0 3.1 4 56
- 0.28352 0 2 tcp 1040 ------- 0 0.0 3.1 5 57
+ 0.28375 1 2 cbr 210 ------- 0 1.0 3.0 49 59
r 0.283968 2 3 cbr 210 ------- 0 1.0 3.0 38 42
- 0.284352 0 2 tcp 1040 ------- 0 0.0 3.1 6 58
- 0.2848 1 2 cbr 210 ------- 0 1.0 3.0 44 50
r 0.2864 1 2 cbr 210 ------- 0 1.0 3.0 41 45
+ 0.2864 2 3 cbr 210 ------- 0 1.0 3.0 41 45
- 0.2864 2 3 cbr 210 ------- 0 1.0 3.0 41 45
+ 0.2875 1 2 cbr 210 ------- 0 1.0 3.0 50 60
r 0.288168 2 3 cbr 210 ------- 0 1.0 3.0 39 43
- 0.289 1 2 cbr 210 ------- 0 1.0 3.0 45 51
r 0.2906 1 2 cbr 210 ------- 0 1.0 3.0 42 46
+ 0.2906 2 3 cbr 210 ------- 0 1.0 3.0 42 46
- 0.2906 2 3 cbr 210 ------- 0 1.0 3.0 42 46
+ 0.29125 1 2 cbr 210 ------- 0 1.0 3.0 51 61
r 0.292368 2 3 cbr 210 ------- 0 1.0 3.0 40 44
r 0.292688 0 2 tcp 1040 ------- 0 0.0 3.1 3 55
+ 0.292688 2 3 tcp 1040 ------- 0 0.0 3.1 3 55
- 0.292688 2 3 tcp 1040 ------- 0 0.0 3.1 3 55
- 0.2932 1 2 cbr 210 ------- 0 1.0 3.0 46 52
r 0.29352 0 2 tcp 1040 ------- 0 0.0 3.1 4 56
+ 0.29352 2 3 tcp 1040 ------- 0 0.0 3.1 4 56
- 0.29352 2 3 tcp 1040 ------- 0 0.0 3.1 4 56
r 0.294352 0 2 tcp 1040 ------- 0 0.0 3.1 5 57
+ 0.294352 2 3 tcp 1040 ------- 0 0.0 3.1 5 57
- 0.294352 2 3 tcp 1040 ------- 0 0.0 3.1 5 57
r 0.2948 1 2 cbr 210 ------- 0 1.0 3.0 43 47
+ 0.2948 2 3 cbr 210 ------- 0 1.0 3.0 43 47
+ 0.295 1 2 cbr 210 ------- 0 1.0 3.0 52 62
r 0.295184 0 2 tcp 1040 ------- 0 0.0 3.1 6 58
+ 0.295184 2 3 tcp 1040 ------- 0 0.0 3.1 6 58
- 0.295184 2 3 cbr 210 ------- 0 1.0 3.0 43 47
- 0.295352 2 3 tcp 1040 ------- 0 0.0 3.1 6 58
r 0.296568 2 3 cbr 210 ------- 0 1.0 3.0 41 45
- 0.2974 1 2 cbr 210 ------- 0 1.0 3.0 47 53
+ 0.29875 1 2 cbr 210 ------- 0 1.0 3.0 53 63
r 0.299 1 2 cbr 210 ------- 0 1.0 3.0 44 50
+ 0.299 2 3 cbr 210 ------- 0 1.0 3.0 44 50
- 0.299 2 3 cbr 210 ------- 0 1.0 3.0 44 50
r 0.300768 2 3 cbr 210 ------- 0 1.0 3.0 42 46
- 0.3016 1 2 cbr 210 ------- 0 1.0 3.0 48 54
+ 0.3025 1 2 cbr 210 ------- 0 1.0 3.0 54 64
r 0.3032 1 2 cbr 210 ------- 0 1.0 3.0 45 51
+ 0.3032 2 3 cbr 210 ------- 0 1.0 3.0 45 51
- 0.3032 2 3 cbr 210 ------- 0 1.0 3.0 45 51
r 0.30352 2 3 tcp 1040 ------- 0 0.0 3.1 3 55
+ 0.30352 3 2 ack 40 ------- 0 3.1 0.0 3 65
- 0.30352 3 2 ack 40 ------- 0 3.1 0.0 3 65
r 0.304352 2 3 tcp 1040 ------- 0 0.0 3.1 4 56
+ 0.304352 3 2 ack 40 ------- 0 3.1 0.0 4 66
- 0.304352 3 2 ack 40 ------- 0 3.1 0.0 4 66
r 0.305184 2 3 tcp 1040 ------- 0 0.0 3.1 5 57
+ 0.305184 3 2 ack 40 ------- 0 3.1 0.0 5 67
- 0.305184 3 2 ack 40 ------- 0 3.1 0.0 5 67
r 0.305352 2 3 cbr 210 ------- 0 1.0 3.0 43 47
- 0.3058 1 2 cbr 210 ------- 0 1.0 3.0 49 59
r 0.306184 2 3 tcp 1040 ------- 0 0.0 3.1 6 58
+ 0.306184 3 2 ack 40 ------- 0 3.1 0.0 6 68
- 0.306184 3 2 ack 40 ------- 0 3.1 0.0 6 68
+ 0.30625 1 2 cbr 210 ------- 0 1.0 3.0 55 69
r 0.3074 1 2 cbr 210 ------- 0 1.0 3.0 46 52
+ 0.3074 2 3 cbr 210 ------- 0 1.0 3.0 46 52
- 0.3074 2 3 cbr 210 ------- 0 1.0 3.0 46 52
r 0.309168 2 3 cbr 210 ------- 0 1.0 3.0 44 50
+ 0.31 1 2 cbr 210 ------- 0 1.0 3.0 56 70
- 0.31 1 2 cbr 210 ------- 0 1.0 3.0 50 60
r 0.3116 1 2 cbr 210 ------- 0 1.0 3.0 47 53
+ 0.3116 2 3 cbr 210 ------- 0 1.0 3.0 47 53
- 0.3116 2 3 cbr 210 ------- 0 1.0 3.0 47 53
r 0.313368 2 3 cbr 210 ------- 0 1.0 3.0 45 51
r 0.313552 3 2 ack 40 ------- 0 3.1 0.0 3 65
+ 0.313552 2 0 ack 40 ------- 0 3.1 0.0 3 65
- 0.313552 2 0 ack 40 ------- 0 3.1 0.0 3 65
+ 0.31375 1 2 cbr 210 ------- 0 1.0 3.0 57 71
- 0.3142 1 2 cbr 210 ------- 0 1.0 3.0 51 61
r 0.314384 3 2 ack 40 ------- 0 3.1 0.0 4 66
+ 0.314384 2 0 ack 40 ------- 0 3.1 0.0 4 66
- 0.314384 2 0 ack 40 ------- 0 3.1 0.0 4 66
r 0.315216 3 2 ack 40 ------- 0 3.1 0.0 5 67
+ 0.315216 2 0 ack 40 ------- 0 3.1 0.0 5 67
- 0.315216 2 0 ack 40 ------- 0 3.1 0.0 5 67
r 0.3158 1 2 cbr 210 ------- 0 1.0 3.0 48 54
+ 0.3158 2 3 cbr 210 ------- 0 1.0 3.0 48 54
- 0.3158 2 3 cbr 210 ------- 0 1.0 3.0 48 54
r 0.316216 3 2 ack 40 ------- 0 3.1 0.0 6 68
+ 0.316216 2 0 ack 40 ------- 0 3.1 0.0 6 68
- 0.316216 2 0 ack 40 ------- 0 3.1 0.0 6 68
+ 0.3175 1 2 cbr 210 ------- 0 1.0 3.0 58 72
r 0.317568 2 3 cbr 210 ------- 0 1.0 3.0 46 52
- 0.3184 1 2 cbr 210 ------- 0 1.0 3.0 52 62
r 0.32 1 2 cbr 210 ------- 0 1.0 3.0 49 59
+ 0.32 2 3 cbr 210 ------- 0 1.0 3.0 49 59
- 0.32 2 3 cbr 210 ------- 0 1.0 3.0 49 59
+ 0.32125 1 2 cbr 210 ------- 0 1.0 3.0 59 73
r 0.321768 2 3 cbr 210 ------- 0 1.0 3.0 47 53
- 0.3226 1 2 cbr 210 ------- 0 1.0 3.0 53 63
r 0.323584 2 0 ack 40 ------- 0 3.1 0.0 3 65
+ 0.323584 0 2 tcp 1040 ------- 0 0.0 3.1 7 74
- 0.323584 0 2 tcp 1040 ------- 0 0.0 3.1 7 74
+ 0.323584 0 2 tcp 1040 ------- 0 0.0 3.1 8 75
r 0.3242 1 2 cbr 210 ------- 0 1.0 3.0 50 60
+ 0.3242 2 3 cbr 210 ------- 0 1.0 3.0 50 60
- 0.3242 2 3 cbr 210 ------- 0 1.0 3.0 50 60
r 0.324416 2 0 ack 40 ------- 0 3.1 0.0 4 66
+ 0.324416 0 2 tcp 1040 ------- 0 0.0 3.1 9 76
+ 0.324416 0 2 tcp 1040 ------- 0 0.0 3.1 10 77
- 0.324416 0 2 tcp 1040 ------- 0 0.0 3.1 8 75
+ 0.325 1 2 cbr 210 ------- 0 1.0 3.0 60 78
r 0.325248 2 0 ack 40 ------- 0 3.1 0.0 5 67
+ 0.325248 0 2 tcp 1040 ------- 0 0.0 3.1 11 79
+ 0.325248 0 2 tcp 1040 ------- 0 0.0 3.1 12 80
- 0.325248 0 2 tcp 1040 ------- 0 0.0 3.1 9 76
r 0.325968 2 3 cbr 210 ------- 0 1.0 3.0 48 54
- 0.32608 0 2 tcp 1040 ------- 0 0.0 3.1 10 77
r 0.326248 2 0 ack 40 ------- 0 3.1 0.0 6 68
+ 0.326248 0 2 tcp 1040 ------- 0 0.0 3.1 13 81
+ 0.326248 0 2 tcp 1040 ------- 0 0.0 3.1 14 82
- 0.3268 1 2 cbr 210 ------- 0 1.0 3.0 54 64
- 0.326912 0 2 tcp 1040 ------- 0 0.0 3.1 11 79
- 0.327744 0 2 tcp 1040 ------- 0 0.0 3.1 12 80
r 0.3284 1 2 cbr 210 ------- 0 1.0 3.0 51 61
+ 0.3284 2 3 cbr 210 ------- 0 1.0 3.0 51 61
- 0.3284 2 3 cbr 210 ------- 0 1.0 3.0 51 61
- 0.328576 0 2 tcp 1040 ------- 0 0.0 3.1 13 81
+ 0.32875 1 2 cbr 210 ------- 0 1.0 3.0 61 83
- 0.329408 0 2 tcp 1040 ------- 0 0.0 3.1 14 82
r 0.330168 2 3 cbr 210 ------- 0 1.0 3.0 49 59
- 0.331 1 2 cbr 210 ------- 0 1.0 3.0 55 69
+ 0.3325 1 2 cbr 210 ------- 0 1.0 3.0 62 84
r 0.3326 1 2 cbr 210 ------- 0 1.0 3.0 52 62
+ 0.3326 2 3 cbr 210 ------- 0 1.0 3.0 52 62
- 0.3326 2 3 cbr 210 ------- 0 1.0 3.0 52 62
r 0.334368 2 3 cbr 210 ------- 0 1.0 3.0 50 60
r 0.334416 0 2 tcp 1040 ------- 0 0.0 3.1 7 74
+ 0.334416 2 3 tcp 1040 ------- 0 0.0 3.1 7 74
- 0.334416 2 3 tcp 1040 ------- 0 0.0 3.1 7 74
- 0.3352 1 2 cbr 210 ------- 0 1.0 3.0 56 70
r 0.335248 0 2 tcp 1040 ------- 0 0.0 3.1 8 75
+ 0.335248 2 3 tcp 1040 ------- 0 0.0 3.1 8 75
- 0.335248 2 3 tcp 1040 ------- 0 0.0 3.1 8 75
r 0.33608 0 2 tcp 1040 ------- 0 0.0 3.1 9 76
+ 0.33608 2 3 tcp 1040 ------- 0 0.0 3.1 9 76
- 0.33608 2 3 tcp 1040 ------- 0 0.0 3.1 9 76
+ 0.33625 1 2 cbr 210 ------- 0 1.0 3.0 63 85
r 0.3368 1 2 cbr 210 ------- 0 1.0 3.0 53 63
+ 0.3368 2 3 cbr 210 ------- 0 1.0 3.0 53 63
r 0.336912 0 2 tcp 1040 ------- 0 0.0 3.1 10 77
+ 0.336912 2 3 tcp 1040 ------- 0 0.0 3.1 10 77
- 0.336912 2 3 cbr 210 ------- 0 1.0 3.0 53 63
- 0.33708 2 3 tcp 1040 ------- 0 0.0 3.1 10 77
r 0.337744 0 2 tcp 1040 ------- 0 0.0 3.1 11 79
+ 0.337744 2 3 tcp 1040 ------- 0 0.0 3.1 11 79
- 0.337912 2 3 tcp 1040 ------- 0 0.0 3.1 11 79
r 0.338568 2 3 cbr 210 ------- 0 1.0 3.0 51 61
r 0.338576 0 2 tcp 1040 ------- 0 0.0 3.1 12 80
+ 0.338576 2 3 tcp 1040 ------- 0 0.0 3.1 12 80
- 0.338744 2 3 tcp 1040 ------- 0 0.0 3.1 12 80
- 0.3394 1 2 cbr 210 ------- 0 1.0 3.0 57 71
r 0.339408 0 2 tcp 1040 ------- 0 0.0 3.1 13 81
+ 0.339408 2 3 tcp 1040 ------- 0 0.0 3.1 13 81
- 0.339576 2 3 tcp 1040 ------- 0 0.0 3.1 13 81
+ 0.34 1 2 cbr 210 ------- 0 1.0 3.0 64 86
r 0.34024 0 2 tcp 1040 ------- 0 0.0 3.1 14 82
+ 0.34024 2 3 tcp 1040 ------- 0 0.0 3.1 14 82
- 0.340408 2 3 tcp 1040 ------- 0 0.0 3.1 14 82
r 0.341 1 2 cbr 210 ------- 0 1.0 3.0 54 64
+ 0.341 2 3 cbr 210 ------- 0 1.0 3.0 54 64
- 0.34124 2 3 cbr 210 ------- 0 1.0 3.0 54 64
r 0.342768 2 3 cbr 210 ------- 0 1.0 3.0 52 62
- 0.3436 1 2 cbr 210 ------- 0 1.0 3.0 58 72
+ 0.34375 1 2 cbr 210 ------- 0 1.0 3.0 65 87
r 0.3452 1 2 cbr 210 ------- 0 1.0 3.0 55 69
+ 0.3452 2 3 cbr 210 ------- 0 1.0 3.0 55 69
- 0.3452 2 3 cbr 210 ------- 0 1.0 3.0 55 69
r 0.345248 2 3 tcp 1040 ------- 0 0.0 3.1 7 74
+ 0.345248 3 2 ack 40 ------- 0 3.1 0.0 7 88
- 0.345248 3 2 ack 40 ------- 0 3.1 0.0 7 88
r 0.34608 2 3 tcp 1040 ------- 0 0.0 3.1 8 75
+ 0.34608 3 2 ack 40 ------- 0 3.1 0.0 8 89
- 0.34608 3 2 ack 40 ------- 0 3.1 0.0 8 89
r 0.346912 2 3 tcp 1040 ------- 0 0.0 3.1 9 76
+ 0.346912 3 2 ack 40 ------- 0 3.1 0.0 9 90
- 0.346912 3 2 ack 40 ------- 0 3.1 0.0 9 90
r 0.34708 2 3 cbr 210 ------- 0 1.0 3.0 53 63
+ 0.3475 1 2 cbr 210 ------- 0 1.0 3.0 66 91
- 0.3478 1 2 cbr 210 ------- 0 1.0 3.0 59 73
r 0.347912 2 3 tcp 1040 ------- 0 0.0 3.1 10 77
+ 0.347912 3 2 ack 40 ------- 0 3.1 0.0 10 92
- 0.347912 3 2 ack 40 ------- 0 3.1 0.0 10 92
r 0.348744 2 3 tcp 1040 ------- 0 0.0 3.1 11 79
+ 0.348744 3 2 ack 40 ------- 0 3.1 0.0 11 93
- 0.348744 3 2 ack 40 ------- 0 3.1 0.0 11 93
r 0.3494 1 2 cbr 210 ------- 0 1.0 3.0 56 70
+ 0.3494 2 3 cbr 210 ------- 0 1.0 3.0 56 70
- 0.3494 2 3 cbr 210 ------- 0 1.0 3.0 56 70
r 0.349576 2 3 tcp 1040 ------- 0 0.0 3.1 12 80
+ 0.349576 3 2 ack 40 ------- 0 3.1 0.0 12 94
- 0.349576 3 2 ack 40 ------- 0 3.1 0.0 12 94
r 0.350408 2 3 tcp 1040 ------- 0 0.0 3.1 13 81
+ 0.350408 3 2 ack 40 ------- 0 3.1 0.0 13 95
- 0.350408 3 2 ack 40 ------- 0 3.1 0.0 13 95
r 0.35124 2 3 tcp 1040 ------- 0 0.0 3.1 14 82
+ 0.35124 3 2 ack 40 ------- 0 3.1 0.0 14 96
- 0.35124 3 2 ack 40 ------- 0 3.1 0.0 14 96
+ 0.35125 1 2 cbr 210 ------- 0 1.0 3.0 67 97
r 0.351408 2 3 cbr 210 ------- 0 1.0 3.0 54 64
- 0.352 1 2 cbr 210 ------- 0 1.0 3.0 60 78
r 0.3536 1 2 cbr 210 ------- 0 1.0 3.0 57 71
+ 0.3536 2 3 cbr 210 ------- 0 1.0 3.0 57 71
- 0.3536 2 3 cbr 210 ------- 0 1.0 3.0 57 71
+ 0.355 1 2 cbr 210 ------- 0 1.0 3.0 68 98
r 0.35528 3 2 ack 40 ------- 0 3.1 0.0 7 88
+ 0.35528 2 0 ack 40 ------- 0 3.1 0.0 7 88
- 0.35528 2 0 ack 40 ------- 0 3.1 0.0 7 88
r 0.355368 2 3 cbr 210 ------- 0 1.0 3.0 55 69
r 0.356112 3 2 ack 40 ------- 0 3.1 0.0 8 89
+ 0.356112 2 0 ack 40 ------- 0 3.1 0.0 8 89
- 0.356112 2 0 ack 40 ------- 0 3.1 0.0 8 89
- 0.3562 1 2 cbr 210 ------- 0 1.0 3.0 61 83
r 0.356944 3 2 ack 40 ------- 0 3.1 0.0 9 90
+ 0.356944 2 0 ack 40 ------- 0 3.1 0.0 9 90
- 0.356944 2 0 ack 40 ------- 0 3.1 0.0 9 90
r 0.3578 1 2 cbr 210 ------- 0 1.0 3.0 58 72
+ 0.3578 2 3 cbr 210 ------- 0 1.0 3.0 58 72
- 0.3578 2 3 cbr 210 ------- 0 1.0 3.0 58 72
r 0.357944 3 2 ack 40 ------- 0 3.1 0.0 10 92
+ 0.357944 2 0 ack 40 ------- 0 3.1 0.0 10 92
- 0.357944 2 0 ack 40 ------- 0 3.1 0.0 10 92
+ 0.35875 1 2 cbr 210 ------- 0 1.0 3.0 69 99
r 0.358776 3 2 ack 40 ------- 0 3.1 0.0 11 93
+ 0.358776 2 0 ack 40 ------- 0 3.1 0.0 11 93
- 0.358776 2 0 ack 40 ------- 0 3.1 0.0 11 93
r 0.359568 2 3 cbr 210 ------- 0 1.0 3.0 56 70
r 0.359608 3 2 ack 40 ------- 0 3.1 0.0 12 94
+ 0.359608 2 0 ack 40 ------- 0 3.1 0.0 12 94
- 0.359608 2 0 ack 40 ------- 0 3.1 0.0 12 94
- 0.3604 1 2 cbr 210 ------- 0 1.0 3.0 62 84
r 0.36044 3 2 ack 40 ------- 0 3.1 0.0 13 95
+ 0.36044 2 0 ack 40 ------- 0 3.1 0.0 13 95
- 0.36044 2 0 ack 40 ------- 0 3.1 0.0 13 95
r 0.361272 3 2 ack 40 ------- 0 3.1 0.0 14 96
+ 0.361272 2 0 ack 40 ------- 0 3.1 0.0 14 96
- 0.361272 2 0 ack 40 ------- 0 3.1 0.0 14 96
r 0.362 1 2 cbr 210 ------- 0 1.0 3.0 59 73
+ 0.362 2 3 cbr 210 ------- 0 1.0 3.0 59 73
- 0.362 2 3 cbr 210 ------- 0 1.0 3.0 59 73
+ 0.3625 1 2 cbr 210 ------- 0 1.0 3.0 70 100
r 0.363768 2 3 cbr 210 ------- 0 1.0 3.0 57 71
- 0.3646 1 2 cbr 210 ------- 0 1.0 3.0 63 85
r 0.365312 2 0 ack 40 ------- 0 3.1 0.0 7 88
+ 0.365312 0 2 tcp 1040 ------- 0 0.0 3.1 15 101
- 0.365312 0 2 tcp 1040 ------- 0 0.0 3.1 15 101
+ 0.365312 0 2 tcp 1040 ------- 0 0.0 3.1 16 102
r 0.366144 2 0 ack 40 ------- 0 3.1 0.0 8 89
+ 0.366144 0 2 tcp 1040 ------- 0 0.0 3.1 17 103
+ 0.366144 0 2 tcp 1040 ------- 0 0.0 3.1 18 104
- 0.366144 0 2 tcp 1040 ------- 0 0.0 3.1 16 102
r 0.3662 1 2 cbr 210 ------- 0 1.0 3.0 60 78
+ 0.3662 2 3 cbr 210 ------- 0 1.0 3.0 60 78
- 0.3662 2 3 cbr 210 ------- 0 1.0 3.0 60 78
+ 0.36625 1 2 cbr 210 ------- 0 1.0 3.0 71 105
r 0.366976 2 0 ack 40 ------- 0 3.1 0.0 9 90
+ 0.366976 0 2 tcp 1040 ------- 0 0.0 3.1 19 106
+ 0.366976 0 2 tcp 1040 ------- 0 0.0 3.1 20 107
- 0.366976 0 2 tcp 1040 ------- 0 0.0 3.1 17 103
- 0.367808 0 2 tcp 1040 ------- 0 0.0 3.1 18 104
r 0.367968 2 3 cbr 210 ------- 0 1.0 3.0 58 72
r 0.367976 2 0 ack 40 ------- 0 3.1 0.0 10 92
+ 0.367976 0 2 tcp 1040 ------- 0 0.0 3.1 21 108
+ 0.367976 0 2 tcp 1040 ------- 0 0.0 3.1 22 109
- 0.36864 0 2 tcp 1040 ------- 0 0.0 3.1 19 106
- 0.3688 1 2 cbr 210 ------- 0 1.0 3.0 64 86
r 0.368808 2 0 ack 40 ------- 0 3.1 0.0 11 93
+ 0.368808 0 2 tcp 1040 ------- 0 0.0 3.1 23 110
+ 0.368808 0 2 tcp 1040 ------- 0 0.0 3.1 24 111
- 0.369472 0 2 tcp 1040 ------- 0 0.0 3.1 20 107
r 0.36964 2 0 ack 40 ------- 0 3.1 0.0 12 94
+ 0.36964 0 2 tcp 1040 ------- 0 0.0 3.1 25 112
+ 0.36964 0 2 tcp 1040 ------- 0 0.0 3.1 26 113
+ 0.37 1 2 cbr 210 ------- 0 1.0 3.0 72 114
- 0.370304 0 2 tcp 1040 ------- 0 0.0 3.1 21 108
r 0.3704 1 2 cbr 210 ------- 0 1.0 3.0 61 83
+ 0.3704 2 3 cbr 210 ------- 0 1.0 3.0 61 83
- 0.3704 2 3 cbr 210 ------- 0 1.0 3.0 61 83
r 0.370472 2 0 ack 40 ------- 0 3.1 0.0 13 95
+ 0.370472 0 2 tcp 1040 ------- 0 0.0 3.1 27 115
+ 0.370472 0 2 tcp 1040 ------- 0 0.0 3.1 28 116
- 0.371136 0 2 tcp 1040 ------- 0 0.0 3.1 22 109
r 0.371304 2 0 ack 40 ------- 0 3.1 0.0 14 96
+ 0.371304 0 2 tcp 1040 ------- 0 0.0 3.1 29 117
+ 0.371304 0 2 tcp 1040 ------- 0 0.0 3.1 30 118
- 0.371968 0 2 tcp 1040 ------- 0 0.0 3.1 23 110
r 0.372168 2 3 cbr 210 ------- 0 1.0 3.0 59 73
- 0.3728 0 2 tcp 1040 ------- 0 0.0 3.1 24 111
- 0.373 1 2 cbr 210 ------- 0 1.0 3.0 65 87
- 0.373632 0 2 tcp 1040 ------- 0 0.0 3.1 25 112
+ 0.37375 1 2 cbr 210 ------- 0 1.0 3.0 73 119
- 0.374464 0 2 tcp 1040 ------- 0 0.0 3.1 26 113
r 0.3746 1 2 cbr 210 ------- 0 1.0 3.0 62 84
+ 0.3746 2 3 cbr 210 ------- 0 1.0 3.0 62 84
- 0.3746 2 3 cbr 210 ------- 0 1.0 3.0 62 84
- 0.375296 0 2 tcp 1040 ------- 0 0.0 3.1 27 115
- 0.376128 0 2 tcp 1040 ------- 0 0.0 3.1 28 116
r 0.376144 0 2 tcp 1040 ------- 0 0.0 3.1 15 101
+ 0.376144 2 3 tcp 1040 ------- 0 0.0 3.1 15 101
- 0.376144 2 3 tcp 1040 ------- 0 0.0 3.1 15 101
r 0.376368 2 3 cbr 210 ------- 0 1.0 3.0 60 78
- 0.37696 0 2 tcp 1040 ------- 0 0.0 3.1 29 117
r 0.376976 0 2 tcp 1040 ------- 0 0.0 3.1 16 102
+ 0.376976 2 3 tcp 1040 ------- 0 0.0 3.1 16 102
- 0.376976 2 3 tcp 1040 ------- 0 0.0 3.1 16 102
- 0.3772 1 2 cbr 210 ------- 0 1.0 3.0 66 91
+ 0.3775 1 2 cbr 210 ------- 0 1.0 3.0 74 120
- 0.377792 0 2 tcp 1040 ------- 0 0.0 3.1 30 118
r 0.377808 0 2 tcp 1040 ------- 0 0.0 3.1 17 103
+ 0.377808 2 3 tcp 1040 ------- 0 0.0 3.1 17 103
- 0.377808 2 3 tcp 1040 ------- 0 0.0 3.1 17 103
r 0.37864 0 2 tcp 1040 ------- 0 0.0 3.1 18 104
+ 0.37864 2 3 tcp 1040 ------- 0 0.0 3.1 18 104
- 0.37864 2 3 tcp 1040 ------- 0 0.0 3.1 18 104
r 0.3788 1 2 cbr 210 ------- 0 1.0 3.0 63 85
+ 0.3788 2 3 cbr 210 ------- 0 1.0 3.0 63 85
r 0.379472 0 2 tcp 1040 ------- 0 0.0 3.1 19 106
+ 0.379472 2 3 tcp 1040 ------- 0 0.0 3.1 19 106
- 0.379472 2 3 cbr 210 ------- 0 1.0 3.0 63 85
- 0.37964 2 3 tcp 1040 ------- 0 0.0 3.1 19 106
r 0.380304 0 2 tcp 1040 ------- 0 0.0 3.1 20 107
+ 0.380304 2 3 tcp 1040 ------- 0 0.0 3.1 20 107
- 0.380472 2 3 tcp 1040 ------- 0 0.0 3.1 20 107
r 0.380568 2 3 cbr 210 ------- 0 1.0 3.0 61 83
r 0.381136 0 2 tcp 1040 ------- 0 0.0 3.1 21 108
+ 0.381136 2 3 tcp 1040 ------- 0 0.0 3.1 21 108
+ 0.38125 1 2 cbr 210 ------- 0 1.0 3.0 75 121
- 0.381304 2 3 tcp 1040 ------- 0 0.0 3.1 21 108
- 0.3814 1 2 cbr 210 ------- 0 1.0 3.0 67 97
r 0.381968 0 2 tcp 1040 ------- 0 0.0 3.1 22 109
+ 0.381968 2 3 tcp 1040 ------- 0 0.0 3.1 22 109
- 0.382136 2 3 tcp 1040 ------- 0 0.0 3.1 22 109
r 0.3828 0 2 tcp 1040 ------- 0 0.0 3.1 23 110
+ 0.3828 2 3 tcp 1040 ------- 0 0.0 3.1 23 110
- 0.382968 2 3 tcp 1040 ------- 0 0.0 3.1 23 110
r 0.383 1 2 cbr 210 ------- 0 1.0 3.0 64 86
+ 0.383 2 3 cbr 210 ------- 0 1.0 3.0 64 86
r 0.383632 0 2 tcp 1040 ------- 0 0.0 3.1 24 111
+ 0.383632 2 3 tcp 1040 ------- 0 0.0 3.1 24 111
- 0.3838 2 3 cbr 210 ------- 0 1.0 3.0 64 86
- 0.383968 2 3 tcp 1040 ------- 0 0.0 3.1 24 111
r 0.384464 0 2 tcp 1040 ------- 0 0.0 3.1 25 112
+ 0.384464 2 3 tcp 1040 ------- 0 0.0 3.1 25 112
r 0.384768 2 3 cbr 210 ------- 0 1.0 3.0 62 84
- 0.3848 2 3 tcp 1040 ------- 0 0.0 3.1 25 112
+ 0.385 1 2 cbr 210 ------- 0 1.0 3.0 76 122
r 0.385296 0 2 tcp 1040 ------- 0 0.0 3.1 26 113
+ 0.385296 2 3 tcp 1040 ------- 0 0.0 3.1 26 113
- 0.3856 1 2 cbr 210 ------- 0 1.0 3.0 68 98
- 0.385632 2 3 tcp 1040 ------- 0 0.0 3.1 26 113
r 0.386128 0 2 tcp 1040 ------- 0 0.0 3.1 27 115
+ 0.386128 2 3 tcp 1040 ------- 0 0.0 3.1 27 115
- 0.386464 2 3 tcp 1040 ------- 0 0.0 3.1 27 115
r 0.38696 0 2 tcp 1040 ------- 0 0.0 3.1 28 116
+ 0.38696 2 3 tcp 1040 ------- 0 0.0 3.1 28 116