+ 0.5 0 2 tcp 40 ------- 1 0.0 3.0 0 0
- 0.5 0 2 tcp 40 ------- 1 0.0 3.0 0 0
r 0.51032 0 2 tcp 40 ------- 1 0.0 3.0 0 0
+ 0.51032 2 3 tcp 40 ------- 1 0.0 3.0 0 0
- 0.51032 2 3 tcp 40 ------- 1 0.0 3.0 0 0
r 0.52064 2 3 tcp 40 ------- 1 0.0 3.0 0 0
+ 0.52064 3 2 ack 40 ------- 1 3.0 0.0 0 1
- 0.52064 3 2 ack 40 ------- 1 3.0 0.0 0 1
r 0.53096 3 2 ack 40 ------- 1 3.0 0.0 0 1
+ 0.53096 2 0 ack 40 ------- 1 3.0 0.0 0 1
- 0.53096 2 0 ack 40 ------- 1 3.0 0.0 0 1
r 0.54128 2 0 ack 40 ------- 1 3.0 0.0 0 1
+ 0.54128 0 2 tcp 1040 ------- 1 0.0 3.0 1 2
- 0.54128 0 2 tcp 1040 ------- 1 0.0 3.0 1 2
+ 0.54128 0 2 tcp 1040 ------- 1 0.0 3.0 2 3
- 0.5496 0 2 tcp 1040 ------- 1 0.0 3.0 2 3
r 0.5596 0 2 tcp 1040 ------- 1 0.0 3.0 1 2
+ 0.5596 2 3 tcp 1040 ------- 1 0.0 3.0 1 2
- 0.5596 2 3 tcp 1040 ------- 1 0.0 3.0 1 2
r 0.56792 0 2 tcp 1040 ------- 1 0.0 3.0 2 3
+ 0.56792 2 3 tcp 1040 ------- 1 0.0 3.0 2 3
- 0.56792 2 3 tcp 1040 ------- 1 0.0 3.0 2 3
r 0.57792 2 3 tcp 1040 ------- 1 0.0 3.0 1 2
+ 0.57792 3 2 ack 40 ------- 1 3.0 0.0 1 4
- 0.57792 3 2 ack 40 ------- 1 3.0 0.0 1 4
r 0.58624 2 3 tcp 1040 ------- 1 0.0 3.0 2 3
+ 0.58624 3 2 ack 40 ------- 1 3.0 0.0 2 5
- 0.58624 3 2 ack 40 ------- 1 3.0 0.0 2 5
r 0.58824 3 2 ack 40 ------- 1 3.0 0.0 1 4
+ 0.58824 2 0 ack 40 ------- 1 3.0 0.0 1 4
- 0.58824 2 0 ack 40 ------- 1 3.0 0.0 1 4
r 0.59656 3 2 ack 40 ------- 1 3.0 0.0 2 5
+ 0.59656 2 0 ack 40 ------- 1 3.0 0.0 2 5
- 0.59656 2 0 ack 40 ------- 1 3.0 0.0 2 5
r 0.59856 2 0 ack 40 ------- 1 3.0 0.0 1 4
+ 0.59856 0 2 tcp 1040 ------- 1 0.0 3.0 3 6
- 0.59856 0 2 tcp 1040 ------- 1 0.0 3.0 3 6
+ 0.59856 0 2 tcp 1040 ------- 1 0.0 3.0 4 7
r 0.60688 2 0 ack 40 ------- 1 3.0 0.0 2 5
+ 0.60688 0 2 tcp 1040 ------- 1 0.0 3.0 5 8
+ 0.60688 0 2 tcp 1040 ------- 1 0.0 3.0 6 9
- 0.60688 0 2 tcp 1040 ------- 1 0.0 3.0 4 7
- 0.6152 0 2 tcp 1040 ------- 1 0.0 3.0 5 8
r 0.61688 0 2 tcp 1040 ------- 1 0.0 3.0 3 6
+ 0.61688 2 3 tcp 1040 ------- 1 0.0 3.0 3 6
- 0.61688 2 3 tcp 1040 ------- 1 0.0 3.0 3 6
- 0.62352 0 2 tcp 1040 ------- 1 0.0 3.0 6 9
r 0.6252 0 2 tcp 1040 ------- 1 0.0 3.0 4 7
+ 0.6252 2 3 tcp 1040 ------- 1 0.0 3.0 4 7
- 0.6252 2 3 tcp 1040 ------- 1 0.0 3.0 4 7
r 0.63352 0 2 tcp 1040 ------- 1 0.0 3.0 5 8
+ 0.63352 2 3 tcp 1040 ------- 1 0.0 3.0 5 8
- 0.63352 2 3 tcp 1040 ------- 1 0.0 3.0 5 8
r 0.6352 2 3 tcp 1040 ------- 1 0.0 3.0 3 6
+ 0.6352 3 2 ack 40 ------- 1 3.0 0.0 3 10
- 0.6352 3 2 ack 40 ------- 1 3.0 0.0 3 10
r 0.64184 0 2 tcp 1040 ------- 1 0.0 3.0 6 9
+ 0.64184 2 3 tcp 1040 ------- 1 0.0 3.0 6 9
- 0.64184 2 3 tcp 1040 ------- 1 0.0 3.0 6 9
r 0.64352 2 3 tcp 1040 ------- 1 0.0 3.0 4 7
+ 0.64352 3 2 ack 40 ------- 1 3.0 0.0 4 11
- 0.64352 3 2 ack 40 ------- 1 3.0 0.0 4 11
r 0.64552 3 2 ack 40 ------- 1 3.0 0.0 3 10
+ 0.64552 2 0 ack 40 ------- 1 3.0 0.0 3 10
- 0.64552 2 0 ack 40 ------- 1 3.0 0.0 3 10
r 0.65184 2 3 tcp 1040 ------- 1 0.0 3.0 5 8
+ 0.65184 3 2 ack 40 ------- 1 3.0 0.0 5 12
- 0.65184 3 2 ack 40 ------- 1 3.0 0.0 5 12
r 0.65384 3 2 ack 40 ------- 1 3.0 0.0 4 11
+ 0.65384 2 0 ack 40 ------- 1 3.0 0.0 4 11
- 0.65384 2 0 ack 40 ------- 1 3.0 0.0 4 11
r 0.65584 2 0 ack 40 ------- 1 3.0 0.0 3 10
+ 0.65584 0 2 tcp 1040 ------- 1 0.0 3.0 7 13
- 0.65584 0 2 tcp 1040 ------- 1 0.0 3.0 7 13
+ 0.65584 0 2 tcp 1040 ------- 1 0.0 3.0 8 14
r 0.66016 2 3 tcp 1040 ------- 1 0.0 3.0 6 9
+ 0.66016 3 2 ack 40 ------- 1 3.0 0.0 6 15
- 0.66016 3 2 ack 40 ------- 1 3.0 0.0 6 15
r 0.66216 3 2 ack 40 ------- 1 3.0 0.0 5 12
+ 0.66216 2 0 ack 40 ------- 1 3.0 0.0 5 12
- 0.66216 2 0 ack 40 ------- 1 3.0 0.0 5 12
r 0.66416 2 0 ack 40 ------- 1 3.0 0.0 4 11
+ 0.66416 0 2 tcp 1040 ------- 1 0.0 3.0 9 16
+ 0.66416 0 2 tcp 1040 ------- 1 0.0 3.0 10 17
- 0.66416 0 2 tcp 1040 ------- 1 0.0 3.0 8 14
r 0.67048 3 2 ack 40 ------- 1 3.0 0.0 6 15
+ 0.67048 2 0 ack 40 ------- 1 3.0 0.0 6 15
- 0.67048 2 0 ack 40 ------- 1 3.0 0.0 6 15
r 0.67248 2 0 ack 40 ------- 1 3.0 0.0 5 12
+ 0.67248 0 2 tcp 1040 ------- 1 0.0 3.0 11 18
+ 0.67248 0 2 tcp 1040 ------- 1 0.0 3.0 12 19
- 0.67248 0 2 tcp 1040 ------- 1 0.0 3.0 9 16
r 0.67416 0 2 tcp 1040 ------- 1 0.0 3.0 7 13
+ 0.67416 2 3 tcp 1040 ------- 1 0.0 3.0 7 13
- 0.67416 2 3 tcp 1040 ------- 1 0.0 3.0 7 13
r 0.6808 2 0 ack 40 ------- 1 3.0 0.0 6 15
+ 0.6808 0 2 tcp 1040 ------- 1 0.0 3.0 13 20
+ 0.6808 0 2 tcp 1040 ------- 1 0.0 3.0 14 21
- 0.6808 0 2 tcp 1040 ------- 1 0.0 3.0 10 17
r 0.68248 0 2 tcp 1040 ------- 1 0.0 3.0 8 14
+ 0.68248 2 3 tcp 1040 ------- 1 0.0 3.0 8 14
- 0.68248 2 3 tcp 1040 ------- 1 0.0 3.0 8 14
- 0.68912 0 2 tcp 1040 ------- 1 0.0 3.0 11 18
r 0.6908 0 2 tcp 1040 ------- 1 0.0 3.0 9 16
+ 0.6908 2 3 tcp 1040 ------- 1 0.0 3.0 9 16
- 0.6908 2 3 tcp 1040 ------- 1 0.0 3.0 9 16
r 0.69248 2 3 tcp 1040 ------- 1 0.0 3.0 7 13
+ 0.69248 3 2 ack 40 ------- 1 3.0 0.0 7 22
- 0.69248 3 2 ack 40 ------- 1 3.0 0.0 7 22
- 0.69744 0 2 tcp 1040 ------- 1 0.0 3.0 12 19
r 0.69912 0 2 tcp 1040 ------- 1 0.0 3.0 10 17
+ 0.69912 2 3 tcp 1040 ------- 1 0.0 3.0 10 17
- 0.69912 2 3 tcp 1040 ------- 1 0.0 3.0 10 17
r 0.7008 2 3 tcp 1040 ------- 1 0.0 3.0 8 14
+ 0.7008 3 2 ack 40 ------- 1 3.0 0.0 8 23
- 0.7008 3 2 ack 40 ------- 1 3.0 0.0 8 23
r 0.7028 3 2 ack 40 ------- 1 3.0 0.0 7 22
+ 0.7028 2 0 ack 40 ------- 1 3.0 0.0 7 22
- 0.7028 2 0 ack 40 ------- 1 3.0 0.0 7 22
- 0.70576 0 2 tcp 1040 ------- 1 0.0 3.0 13 20
r 0.70744 0 2 tcp 1040 ------- 1 0.0 3.0 11 18
+ 0.70744 2 3 tcp 1040 ------- 1 0.0 3.0 11 18
- 0.70744 2 3 tcp 1040 ------- 1 0.0 3.0 11 18
r 0.70912 2 3 tcp 1040 ------- 1 0.0 3.0 9 16
+ 0.70912 3 2 ack 40 ------- 1 3.0 0.0 9 24
- 0.70912 3 2 ack 40 ------- 1 3.0 0.0 9 24
r 0.71112 3 2 ack 40 ------- 1 3.0 0.0 8 23
+ 0.71112 2 0 ack 40 ------- 1 3.0 0.0 8 23
- 0.71112 2 0 ack 40 ------- 1 3.0 0.0 8 23
r 0.71312 2 0 ack 40 ------- 1 3.0 0.0 7 22
+ 0.71312 0 2 tcp 1040 ------- 1 0.0 3.0 15 25
+ 0.71312 0 2 tcp 1040 ------- 1 0.0 3.0 16 26
- 0.71408 0 2 tcp 1040 ------- 1 0.0 3.0 14 21
r 0.71576 0 2 tcp 1040 ------- 1 0.0 3.0 12 19
+ 0.71576 2 3 tcp 1040 ------- 1 0.0 3.0 12 19
- 0.71576 2 3 tcp 1040 ------- 1 0.0 3.0 12 19
r 0.71744 2 3 tcp 1040 ------- 1 0.0 3.0 10 17
+ 0.71744 3 2 ack 40 ------- 1 3.0 0.0 10 27
- 0.71744 3 2 ack 40 ------- 1 3.0 0.0 10 27
r 0.71944 3 2 ack 40 ------- 1 3.0 0.0 9 24
+ 0.71944 2 0 ack 40 ------- 1 3.0 0.0 9 24
- 0.71944 2 0 ack 40 ------- 1 3.0 0.0 9 24
r 0.72144 2 0 ack 40 ------- 1 3.0 0.0 8 23
+ 0.72144 0 2 tcp 1040 ------- 1 0.0 3.0 17 28
+ 0.72144 0 2 tcp 1040 ------- 1 0.0 3.0 18 29
- 0.7224 0 2 tcp 1040 ------- 1 0.0 3.0 15 25
r 0.72408 0 2 tcp 1040 ------- 1 0.0 3.0 13 20
+ 0.72408 2 3 tcp 1040 ------- 1 0.0 3.0 13 20
- 0.72408 2 3 tcp 1040 ------- 1 0.0 3.0 13 20
r 0.72576 2 3 tcp 1040 ------- 1 0.0 3.0 11 18
+ 0.72576 3 2 ack 40 ------- 1 3.0 0.0 11 30
- 0.72576 3 2 ack 40 ------- 1 3.0 0.0 11 30
r 0.72776 3 2 ack 40 ------- 1 3.0 0.0 10 27
+ 0.72776 2 0 ack 40 ------- 1 3.0 0.0 10 27
- 0.72776 2 0 ack 40 ------- 1 3.0 0.0 10 27
r 0.72976 2 0 ack 40 ------- 1 3.0 0.0 9 24
+ 0.72976 0 2 tcp 1040 ------- 1 0.0 3.0 19 31
+ 0.72976 0 2 tcp 1040 ------- 1 0.0 3.0 20 32
- 0.73072 0 2 tcp 1040 ------- 1 0.0 3.0 16 26
r 0.7324 0 2 tcp 1040 ------- 1 0.0 3.0 14 21
+ 0.7324 2 3 tcp 1040 ------- 1 0.0 3.0 14 21
- 0.7324 2 3 tcp 1040 ------- 1 0.0 3.0 14 21
r 0.73408 2 3 tcp 1040 ------- 1 0.0 3.0 12 19
+ 0.73408 3 2 ack 40 ------- 1 3.0 0.0 12 33
- 0.73408 3 2 ack 40 ------- 1 3.0 0.0 12 33
r 0.73608 3 2 ack 40 ------- 1 3.0 0.0 11 30
+ 0.73608 2 0 ack 40 ------- 1 3.0 0.0 11 30
- 0.73608 2 0 ack 40 ------- 1 3.0 0.0 11 30
r 0.73808 2 0 ack 40 ------- 1 3.0 0.0 10 27
+ 0.73808 0 2 tcp 1040 ------- 1 0.0 3.0 21 34
+ 0.73808 0 2 tcp 1040 ------- 1 0.0 3.0 22 35
- 0.73904 0 2 tcp 1040 ------- 1 0.0 3.0 17 28
r 0.74072 0 2 tcp 1040 ------- 1 0.0 3.0 15 25
+ 0.74072 2 3 tcp 1040 ------- 1 0.0 3.0 15 25
- 0.74072 2 3 tcp 1040 ------- 1 0.0 3.0 15 25
r 0.7424 2 3 tcp 1040 ------- 1 0.0 3.0 13 20
+ 0.7424 3 2 ack 40 ------- 1 3.0 0.0 13 36
- 0.7424 3 2 ack 40 ------- 1 3.0 0.0 13 36
r 0.7444 3 2 ack 40 ------- 1 3.0 0.0 12 33
+ 0.7444 2 0 ack 40 ------- 1 3.0 0.0 12 33
- 0.7444 2 0 ack 40 ------- 1 3.0 0.0 12 33
r 0.7464 2 0 ack 40 ------- 1 3.0 0.0 11 30
+ 0.7464 0 2 tcp 1040 ------- 1 0.0 3.0 23 37
+ 0.7464 0 2 tcp 1040 ------- 1 0.0 3.0 24 38
- 0.74736 0 2 tcp 1040 ------- 1 0.0 3.0 18 29
r 0.74904 0 2 tcp 1040 ------- 1 0.0 3.0 16 26
+ 0.74904 2 3 tcp 1040 ------- 1 0.0 3.0 16 26
- 0.74904 2 3 tcp 1040 ------- 1 0.0 3.0 16 26
r 0.75072 2 3 tcp 1040 ------- 1 0.0 3.0 14 21
+ 0.75072 3 2 ack 40 ------- 1 3.0 0.0 14 39
- 0.75072 3 2 ack 40 ------- 1 3.0 0.0 14 39
r 0.75272 3 2 ack 40 ------- 1 3.0 0.0 13 36
+ 0.75272 2 0 ack 40 ------- 1 3.0 0.0 13 36
- 0.75272 2 0 ack 40 ------- 1 3.0 0.0 13 36
r 0.75472 2 0 ack 40 ------- 1 3.0 0.0 12 33
+ 0.75472 0 2 tcp 1040 ------- 1 0.0 3.0 25 40
+ 0.75472 0 2 tcp 1040 ------- 1 0.0 3.0 26 41
- 0.75568 0 2 tcp 1040 ------- 1 0.0 3.0 19 31
r 0.75736 0 2 tcp 1040 ------- 1 0.0 3.0 17 28
+ 0.75736 2 3 tcp 1040 ------- 1 0.0 3.0 17 28
- 0.75736 2 3 tcp 1040 ------- 1 0.0 3.0 17 28
r 0.75904 2 3 tcp 1040 ------- 1 0.0 3.0 15 25
+ 0.75904 3 2 ack 40 ------- 1 3.0 0.0 15 42
- 0.75904 3 2 ack 40 ------- 1 3.0 0.0 15 42
r 0.76104 3 2 ack 40 ------- 1 3.0 0.0 14 39
+ 0.76104 2 0 ack 40 ------- 1 3.0 0.0 14 39
- 0.76104 2 0 ack 40 ------- 1 3.0 0.0 14 39
r 0.76304 2 0 ack 40 ------- 1 3.0 0.0 13 36
+ 0.76304 0 2 tcp 1040 ------- 1 0.0 3.0 27 43
+ 0.76304 0 2 tcp 1040 ------- 1 0.0 3.0 28 44
- 0.764 0 2 tcp 1040 ------- 1 0.0 3.0 20 32
r 0.76568 0 2 tcp 1040 ------- 1 0.0 3.0 18 29
+ 0.76568 2 3 tcp 1040 ------- 1 0.0 3.0 18 29
- 0.76568 2 3 tcp 1040 ------- 1 0.0 3.0 18 29
r 0.76736 2 3 tcp 1040 ------- 1 0.0 3.0 16 26
+ 0.76736 3 2 ack 40 ------- 1 3.0 0.0 16 45
- 0.76736 3 2 ack 40 ------- 1 3.0 0.0 16 45
r 0.76936 3 2 ack 40 ------- 1 3.0 0.0 15 42
+ 0.76936 2 0 ack 40 ------- 1 3.0 0.0 15 42
- 0.76936 2 0 ack 40 ------- 1 3.0 0.0 15 42
r 0.77136 2 0 ack 40 ------- 1 3.0 0.0 14 39
+ 0.77136 0 2 tcp 1040 ------- 1 0.0 3.0 29 46
+ 0.77136 0 2 tcp 1040 ------- 1 0.0 3.0 30 47
d 0.77136 0 2 tcp 1040 ------- 1 0.0 3.0 30 47
- 0.77232 0 2 tcp 1040 ------- 1 0.0 3.0 21 34
r 0.774 0 2 tcp 1040 ------- 1 0.0 3.0 19 31
+ 0.774 2 3 tcp 1040 ------- 1 0.0 3.0 19 31
- 0.774 2 3 tcp 1040 ------- 1 0.0 3.0 19 31
r 0.77568 2 3 tcp 1040 ------- 1 0.0 3.0 17 28
+ 0.77568 3 2 ack 40 ------- 1 3.0 0.0 17 48
- 0.77568 3 2 ack 40 ------- 1 3.0 0.0 17 48
r 0.77768 3 2 ack 40 ------- 1 3.0 0.0 16 45
+ 0.77768 2 0 ack 40 ------- 1 3.0 0.0 16 45
- 0.77768 2 0 ack 40 ------- 1 3.0 0.0 16 45
r 0.77968 2 0 ack 40 ------- 1 3.0 0.0 15 42
+ 0.77968 0 2 tcp 1040 ------- 1 0.0 3.0 31 49
+ 0.77968 0 2 tcp 1040 ------- 1 0.0 3.0 32 50
d 0.77968 0 2 tcp 1040 ------- 1 0.0 3.0 32 50
- 0.78064 0 2 tcp 1040 ------- 1 0.0 3.0 22 35
r 0.78232 0 2 tcp 1040 ------- 1 0.0 3.0 20 32
+ 0.78232 2 3 tcp 1040 ------- 1 0.0 3.0 20 32
- 0.78232 2 3 tcp 1040 ------- 1 0.0 3.0 20 32
r 0.784 2 3 tcp 1040 ------- 1 0.0 3.0 18 29
+ 0.784 3 2 ack 40 ------- 1 3.0 0.0 18 51
- 0.784 3 2 ack 40 ------- 1 3.0 0.0 18 51
r 0.786 3 2 ack 40 ------- 1 3.0 0.0 17 48
+ 0.786 2 0 ack 40 ------- 1 3.0 0.0 17 48
- 0.786 2 0 ack 40 ------- 1 3.0 0.0 17 48
r 0.788 2 0 ack 40 ------- 1 3.0 0.0 16 45
+ 0.788 0 2 tcp 1040 ------- 1 0.0 3.0 33 52
+ 0.788 0 2 tcp 1040 ------- 1 0.0 3.0 34 53
d 0.788 0 2 tcp 1040 ------- 1 0.0 3.0 34 53
- 0.78896 0 2 tcp 1040 ------- 1 0.0 3.0 23 37
r 0.79064 0 2 tcp 1040 ------- 1 0.0 3.0 21 34
+ 0.79064 2 3 tcp 1040 ------- 1 0.0 3.0 21 34
- 0.79064 2 3 tcp 1040 ------- 1 0.0 3.0 21 34
r 0.79232 2 3 tcp 1040 ------- 1 0.0 3.0 19 31
+ 0.79232 3 2 ack 40 ------- 1 3.0 0.0 19 54
- 0.79232 3 2 ack 40 ------- 1 3.0 0.0 19 54
r 0.79432 3 2 ack 40 ------- 1 3.0 0.0 18 51
+ 0.79432 2 0 ack 40 ------- 1 3.0 0.0 18 51
- 0.79432 2 0 ack 40 ------- 1 3.0 0.0 18 51
r 0.79632 2 0 ack 40 ------- 1 3.0 0.0 17 48
+ 0.79632 0 2 tcp 1040 ------- 1 0.0 3.0 35 55
+ 0.79632 0 2 tcp 1040 ------- 1 0.0 3.0 36 56
d 0.79632 0 2 tcp 1040 ------- 1 0.0 3.0 36 56
- 0.79728 0 2 tcp 1040 ------- 1 0.0 3.0 24 38
r 0.79896 0 2 tcp 1040 ------- 1 0.0 3.0 22 35
+ 0.79896 2 3 tcp 1040 ------- 1 0.0 3.0 22 35
- 0.79896 2 3 tcp 1040 ------- 1 0.0 3.0 22 35
r 0.80064 2 3 tcp 1040 ------- 1 0.0 3.0 20 32
+ 0.80064 3 2 ack 40 ------- 1 3.0 0.0 20 57
- 0.80064 3 2 ack 40 ------- 1 3.0 0.0 20 57
r 0.80264 3 2 ack 40 ------- 1 3.0 0.0 19 54
+ 0.80264 2 0 ack 40 ------- 1 3.0 0.0 19 54
- 0.80264 2 0 ack 40 ------- 1 3.0 0.0 19 54
r 0.80464 2 0 ack 40 ------- 1 3.0 0.0 18 51
+ 0.80464 0 2 tcp 1040 ------- 1 0.0 3.0 37 58
+ 0.80464 0 2 tcp 1040 ------- 1 0.0 3.0 38 59
d 0.80464 0 2 tcp 1040 ------- 1 0.0 3.0 38 59
- 0.8056 0 2 tcp 1040 ------- 1 0.0 3.0 25 40
r 0.80728 0 2 tcp 1040 ------- 1 0.0 3.0 23 37
+ 0.80728 2 3 tcp 1040 ------- 1 0.0 3.0 23 37
- 0.80728 2 3 tcp 1040 ------- 1 0.0 3.0 23 37
r 0.80896 2 3 tcp 1040 ------- 1 0.0 3.0 21 34
+ 0.80896 3 2 ack 40 ------- 1 3.0 0.0 21 60
- 0.80896 3 2 ack 40 ------- 1 3.0 0.0 21 60
r 0.81096 3 2 ack 40 ------- 1 3.0 0.0 20 57
+ 0.81096 2 0 ack 40 ------- 1 3.0 0.0 20 57
- 0.81096 2 0 ack 40 ------- 1 3.0 0.0 20 57
r 0.81296 2 0 ack 40 ------- 1 3.0 0.0 19 54
+ 0.81296 0 2 tcp 1040 ------- 1 0.0 3.0 39 61
- 0.81392 0 2 tcp 1040 ------- 1 0.0 3.0 26 41
r 0.8156 0 2 tcp 1040 ------- 1 0.0 3.0 24 38
+ 0.8156 2 3 tcp 1040 ------- 1 0.0 3.0 24 38
- 0.8156 2 3 tcp 1040 ------- 1 0.0 3.0 24 38
r 0.81728 2 3 tcp 1040 ------- 1 0.0 3.0 22 35
+ 0.81728 3 2 ack 40 ------- 1 3.0 0.0 22 62
- 0.81728 3 2 ack 40 ------- 1 3.0 0.0 22 62
r 0.81928 3 2 ack 40 ------- 1 3.0 0.0 21 60
+ 0.81928 2 0 ack 40 ------- 1 3.0 0.0 21 60
- 0.81928 2 0 ack 40 ------- 1 3.0 0.0 21 60
r 0.82128 2 0 ack 40 ------- 1 3.0 0.0 20 57
+ 0.82128 0 2 tcp 1040 ------- 1 0.0 3.0 40 63
- 0.82224 0 2 tcp 1040 ------- 1 0.0 3.0 27 43
r 0.82392 0 2 tcp 1040 ------- 1 0.0 3.0 25 40
+ 0.82392 2 3 tcp 1040 ------- 1 0.0 3.0 25 40
- 0.82392 2 3 tcp 1040 ------- 1 0.0 3.0 25 40
r 0.8256 2 3 tcp 1040 ------- 1 0.0 3.0 23 37
+ 0.8256 3 2 ack 40 ------- 1 3.0 0.0 23 64
- 0.8256 3 2 ack 40 ------- 1 3.0 0.0 23 64
r 0.8276 3 2 ack 40 ------- 1 3.0 0.0 22 62
+ 0.8276 2 0 ack 40 ------- 1 3.0 0.0 22 62
- 0.8276 2 0 ack 40 ------- 1 3.0 0.0 22 62
r 0.8296 2 0 ack 40 ------- 1 3.0 0.0 21 60
+ 0.8296 0 2 tcp 1040 ------- 1 0.0 3.0 41 65
- 0.83056 0 2 tcp 1040 ------- 1 0.0 3.0 28 44
r 0.83224 0 2 tcp 1040 ------- 1 0.0 3.0 26 41
+ 0.83224 2 3 tcp 1040 ------- 1 0.0 3.0 26 41
- 0.83224 2 3 tcp 1040 ------- 1 0.0 3.0 26 41
r 0.83392 2 3 tcp 1040 ------- 1 0.0 3.0 24 38
+ 0.83392 3 2 ack 40 ------- 1 3.0 0.0 24 66
- 0.83392 3 2 ack 40 ------- 1 3.0 0.0 24 66
r 0.83592 3 2 ack 40 ------- 1 3.0 0.0 23 64
+ 0.83592 2 0 ack 40 ------- 1 3.0 0.0 23 64
- 0.83592 2 0 ack 40 ------- 1 3.0 0.0 23 64
r 0.83792 2 0 ack 40 ------- 1 3.0 0.0 22 62
+ 0.83792 0 2 tcp 1040 ------- 1 0.0 3.0 42 67
- 0.83888 0 2 tcp 1040 ------- 1 0.0 3.0 29 46
r 0.84056 0 2 tcp 1040 ------- 1 0.0 3.0 27 43
+ 0.84056 2 3 tcp 1040 ------- 1 0.0 3.0 27 43
- 0.84056 2 3 tcp 1040 ------- 1 0.0 3.0 27 43
r 0.84224 2 3 tcp 1040 ------- 1 0.0 3.0 25 40
+ 0.84224 3 2 ack 40 ------- 1 3.0 0.0 25 68
- 0.84224 3 2 ack 40 ------- 1 3.0 0.0 25 68
r 0.84424 3 2 ack 40 ------- 1 3.0 0.0 24 66
+ 0.84424 2 0 ack 40 ------- 1 3.0 0.0 24 66
- 0.84424 2 0 ack 40 ------- 1 3.0 0.0 24 66
r 0.84624 2 0 ack 40 ------- 1 3.0 0.0 23 64
+ 0.84624 0 2 tcp 1040 ------- 1 0.0 3.0 43 69
- 0.8472 0 2 tcp 1040 ------- 1 0.0 3.0 31 49
r 0.84888 0 2 tcp 1040 ------- 1 0.0 3.0 28 44
+ 0.84888 2 3 tcp 1040 ------- 1 0.0 3.0 28 44
- 0.84888 2 3 tcp 1040 ------- 1 0.0 3.0 28 44
r 0.85056 2 3 tcp 1040 ------- 1 0.0 3.0 26 41
+ 0.85056 3 2 ack 40 ------- 1 3.0 0.0 26 70
- 0.85056 3 2 ack 40 ------- 1 3.0 0.0 26 70
r 0.85256 3 2 ack 40 ------- 1 3.0 0.0 25 68
+ 0.85256 2 0 ack 40 ------- 1 3.0 0.0 25 68
- 0.85256 2 0 ack 40 ------- 1 3.0 0.0 25 68
r 0.85456 2 0 ack 40 ------- 1 3.0 0.0 24 66
+ 0.85456 0 2 tcp 1040 ------- 1 0.0 3.0 44 71
- 0.85552 0 2 tcp 1040 ------- 1 0.0 3.0 33 52
r 0.8572 0 2 tcp 1040 ------- 1 0.0 3.0 29 46
+ 0.8572 2 3 tcp 1040 ------- 1 0.0 3.0 29 46
- 0.8572 2 3 tcp 1040 ------- 1 0.0 3.0 29 46
r 0.85888 2 3 tcp 1040 ------- 1 0.0 3.0 27 43
+ 0.85888 3 2 ack 40 ------- 1 3.0 0.0 27 72
- 0.85888 3 2 ack 40 ------- 1 3.0 0.0 27 72
r 0.86088 3 2 ack 40 ------- 1 3.0 0.0 26 70
+ 0.86088 2 0 ack 40 ------- 1 3.0 0.0 26 70
- 0.86088 2 0 ack 40 ------- 1 3.0 0.0 26 70
r 0.86288 2 0 ack 40 ------- 1 3.0 0.0 25 68
+ 0.86288 0 2 tcp 1040 ------- 1 0.0 3.0 45 73
- 0.86384 0 2 tcp 1040 ------- 1 0.0 3.0 35 55
r 0.86552 0 2 tcp 1040 ------- 1 0.0 3.0 31 49
+ 0.86552 2 3 tcp 1040 ------- 1 0.0 3.0 31 49
- 0.86552 2 3 tcp 1040 ------- 1 0.0 3.0 31 49
r 0.8672 2 3 tcp 1040 ------- 1 0.0 3.0 28 44
+ 0.8672 3 2 ack 40 ------- 1 3.0 0.0 28 74
- 0.8672 3 2 ack 40 ------- 1 3.0 0.0 28 74
r 0.8692 3 2 ack 40 ------- 1 3.0 0.0 27 72
+ 0.8692 2 0 ack 40 ------- 1 3.0 0.0 27 72
- 0.8692 2 0 ack 40 ------- 1 3.0 0.0 27 72
r 0.8712 2 0 ack 40 ------- 1 3.0 0.0 26 70
+ 0.8712 0 2 tcp 1040 ------- 1 0.0 3.0 46 75
- 0.87216 0 2 tcp 1040 ------- 1 0.0 3.0 37 58
r 0.87384 0 2 tcp 1040 ------- 1 0.0 3.0 33 52
+ 0.87384 2 3 tcp 1040 ------- 1 0.0 3.0 33 52
- 0.87384 2 3 tcp 1040 ------- 1 0.0 3.0 33 52
r 0.87552 2 3 tcp 1040 ------- 1 0.0 3.0 29 46
+ 0.87552 3 2 ack 40 ------- 1 3.0 0.0 29 76
- 0.87552 3 2 ack 40 ------- 1 3.0 0.0 29 76
r 0.87752 3 2 ack 40 ------- 1 3.0 0.0 28 74
+ 0.87752 2 0 ack 40 ------- 1 3.0 0.0 28 74
- 0.87752 2 0 ack 40 ------- 1 3.0 0.0 28 74
r 0.87952 2 0 ack 40 ------- 1 3.0 0.0 27 72
+ 0.87952 0 2 tcp 1040 ------- 1 0.0 3.0 47 77
- 0.88048 0 2 tcp 1040 ------- 1 0.0 3.0 39 61
r 0.88216 0 2 tcp 1040 ------- 1 0.0 3.0 35 55
+ 0.88216 2 3 tcp 1040 ------- 1 0.0 3.0 35 55
- 0.88216 2 3 tcp 1040 ------- 1 0.0 3.0 35 55
r 0.88384 2 3 tcp 1040 ------- 1 0.0 3.0 31 49
+ 0.88384 3 2 ack 40 ------- 1 3.0 0.0 29 78
- 0.88384 3 2 ack 40 ------- 1 3.0 0.0 29 78
r 0.88584 3 2 ack 40 ------- 1 3.0 0.0 29 76
+ 0.88584 2 0 ack 40 ------- 1 3.0 0.0 29 76
- 0.88584 2 0 ack 40 ------- 1 3.0 0.0 29 76
r 0.88784 2 0 ack 40 ------- 1 3.0 0.0 28 74
+ 0.88784 0 2 tcp 1040 ------- 1 0.0 3.0 48 79
- 0.8888 0 2 tcp 1040 ------- 1 0.0 3.0 40 63
r 0.89048 0 2 tcp 1040 ------- 1 0.0 3.0 37 58
+ 0.89048 2 3 tcp 1040 ------- 1 0.0 3.0 37 58
- 0.89048 2 3 tcp 1040 ------- 1 0.0 3.0 37 58
r 0.89216 2 3 tcp 1040 ------- 1 0.0 3.0 33 52
+ 0.89216 3 2 ack 40 ------- 1 3.0 0.0 29 80
- 0.89216 3 2 ack 40 ------- 1 3.0 0.0 29 80
r 0.89416 3 2 ack 40 ------- 1 3.0 0.0 29 78
+ 0.89416 2 0 ack 40 ------- 1 3.0 0.0 29 78
- 0.89416 2 0 ack 40 ------- 1 3.0 0.0 29 78
r 0.89616 2 0 ack 40 ------- 1 3.0 0.0 29 76
+ 0.89616 0 2 tcp 1040 ------- 1 0.0 3.0 49 81
- 0.89712 0 2 tcp 1040 ------- 1 0.0 3.0 41 65
r 0.8988 0 2 tcp 1040 ------- 1 0.0 3.0 39 61
+ 0.8988 2 3 tcp 1040 ------- 1 0.0 3.0 39 61
- 0.8988 2 3 tcp 1040 ------- 1 0.0 3.0 39 61
r 0.90048 2 3 tcp 1040 ------- 1 0.0 3.0 35 55
+ 0.90048 3 2 ack 40 ------- 1 3.0 0.0 29 82
- 0.90048 3 2 ack 40 ------- 1 3.0 0.0 29 82
r 0.90248 3 2 ack 40 ------- 1 3.0 0.0 29 80
+ 0.90248 2 0 ack 40 ------- 1 3.0 0.0 29 80
- 0.90248 2 0 ack 40 ------- 1 3.0 0.0 29 80
r 0.90448 2 0 ack 40 ------- 1 3.0 0.0 29 78
- 0.90544 0 2 tcp 1040 ------- 1 0.0 3.0 42 67
r 0.90712 0 2 tcp 1040 ------- 1 0.0 3.0 40 63
+ 0.90712 2 3 tcp 1040 ------- 1 0.0 3.0 40 63
- 0.90712 2 3 tcp 1040 ------- 1 0.0 3.0 40 63
r 0.9088 2 3 tcp 1040 ------- 1 0.0 3.0 37 58
+ 0.9088 3 2 ack 40 ------- 1 3.0 0.0 29 83
- 0.9088 3 2 ack 40 ------- 1 3.0 0.0 29 83
r 0.9108 3 2 ack 40 ------- 1 3.0 0.0 29 82
+ 0.9108 2 0 ack 40 ------- 1 3.0 0.0 29 82
- 0.9108 2 0 ack 40 ------- 1 3.0 0.0 29 82
r 0.9128 2 0 ack 40 ------- 1 3.0 0.0 29 80
- 0.91376 0 2 tcp 1040 ------- 1 0.0 3.0 43 69
r 0.91544 0 2 tcp 1040 ------- 1 0.0 3.0 41 65
+ 0.91544 2 3 tcp 1040 ------- 1 0.0 3.0 41 65
- 0.91544 2 3 tcp 1040 ------- 1 0.0 3.0 41 65
r 0.91712 2 3 tcp 1040 ------- 1 0.0 3.0 39 61
+ 0.91712 3 2 ack 40 ------- 1 3.0 0.0 29 84
- 0.91712 3 2 ack 40 ------- 1 3.0 0.0 29 84
r 0.91912 3 2 ack 40 ------- 1 3.0 0.0 29 83
+ 0.91912 2 0 ack 40 ------- 1 3.0 0.0 29 83
- 0.91912 2 0 ack 40 ------- 1 3.0 0.0 29 83
r 0.92112 2 0 ack 40 ------- 1 3.0 0.0 29 82
+ 0.92112 0 2 tcp 1040 ---A--- 1 0.0 3.0 30 85
- 0.92208 0 2 tcp 1040 ------- 1 0.0 3.0 44 71
r 0.92376 0 2 tcp 1040 ------- 1 0.0 3.0 42 67
+ 0.92376 2 3 tcp 1040 ------- 1 0.0 3.0 42 67
- 0.92376 2 3 tcp 1040 ------- 1 0.0 3.0 42 67
r 0.92544 2 3 tcp 1040 ------- 1 0.0 3.0 40 63
+ 0.92544 3 2 ack 40 ------- 1 3.0 0.0 29 86
- 0.92544 3 2 ack 40 ------- 1 3.0 0.0 29 86
r 0.92744 3 2 ack 40 ------- 1 3.0 0.0 29 84
+ 0.92744 2 0 ack 40 ------- 1 3.0 0.0 29 84
- 0.92744 2 0 ack 40 ------- 1 3.0 0.0 29 84
r 0.92944 2 0 ack 40 ------- 1 3.0 0.0 29 83
- 0.9304 0 2 tcp 1040 ------- 1 0.0 3.0 45 73
r 0.93208 0 2 tcp 1040 ------- 1 0.0 3.0 43 69
+ 0.93208 2 3 tcp 1040 ------- 1 0.0 3.0 43 69
- 0.93208 2 3 tcp 1040 ------- 1 0.0 3.0 43 69
r 0.93376 2 3 tcp 1040 ------- 1 0.0 3.0 41 65
+ 0.93376 3 2 ack 40 ------- 1 3.0 0.0 29 87
- 0.93376 3 2 ack 40 ------- 1 3.0 0.0 29 87
r 0.93576 3 2 ack 40 ------- 1 3.0 0.0 29 86
+ 0.93576 2 0 ack 40 ------- 1 3.0 0.0 29 86
- 0.93576 2 0 ack 40 ------- 1 3.0 0.0 29 86
r 0.93776 2 0 ack 40 ------- 1 3.0 0.0 29 84
- 0.93872 0 2 tcp 1040 ------- 1 0.0 3.0 46 75
r 0.9404 0 2 tcp 1040 ------- 1 0.0 3.0 44 71
+ 0.9404 2 3 tcp 1040 ------- 1 0.0 3.0 44 71
- 0.9404 2 3 tcp 1040 ------- 1 0.0 3.0 44 71
r 0.94208 2 3 tcp 1040 ------- 1 0.0 3.0 42 67
+ 0.94208 3 2 ack 40 ------- 1 3.0 0.0 29 88
- 0.94208 3 2 ack 40 ------- 1 3.0 0.0 29 88
r 0.94408 3 2 ack 40 ------- 1 3.0 0.0 29 87
+ 0.94408 2 0 ack 40 ------- 1 3.0 0.0 29 87
- 0.94408 2 0 ack 40 ------- 1 3.0 0.0 29 87
r 0.94608 2 0 ack 40 ------- 1 3.0 0.0 29 86
- 0.94704 0 2 tcp 1040 ------- 1 0.0 3.0 47 77
r 0.94872 0 2 tcp 1040 ------- 1 0.0 3.0 45 73
+ 0.94872 2 3 tcp 1040 ------- 1 0.0 3.0 45 73
- 0.94872 2 3 tcp 1040 ------- 1 0.0 3.0 45 73
r 0.9504 2 3 tcp 1040 ------- 1 0.0 3.0 43 69
+ 0.9504 3 2 ack 40 ------- 1 3.0 0.0 29 89
- 0.9504 3 2 ack 40 ------- 1 3.0 0.0 29 89
r 0.9524 3 2 ack 40 ------- 1 3.0 0.0 29 88
+ 0.9524 2 0 ack 40 ------- 1 3.0 0.0 29 88
- 0.9524 2 0 ack 40 ------- 1 3.0 0.0 29 88
r 0.9544 2 0 ack 40 ------- 1 3.0 0.0 29 87
- 0.95536 0 2 tcp 1040 ------- 1 0.0 3.0 48 79
r 0.95704 0 2 tcp 1040 ------- 1 0.0 3.0 46 75
+ 0.95704 2 3 tcp 1040 ------- 1 0.0 3.0 46 75
- 0.95704 2 3 tcp 1040 ------- 1 0.0 3.0 46 75
r 0.95872 2 3 tcp 1040 ------- 1 0.0 3.0 44 71
+ 0.95872 3 2 ack 40 ------- 1 3.0 0.0 29 90
- 0.95872 3 2 ack 40 ------- 1 3.0 0.0 29 90
r 0.96072 3 2 ack 40 ------- 1 3.0 0.0 29 89
+ 0.96072 2 0 ack 40 ------- 1 3.0 0.0 29 89
- 0.96072 2 0 ack 40 ------- 1 3.0 0.0 29 89
r 0.96272 2 0 ack 40 ------- 1 3.0 0.0 29 88
- 0.96368 0 2 tcp 1040 ------- 1 0.0 3.0 49 81
r 0.96536 0 2 tcp 1040 ------- 1 0.0 3.0 47 77
+ 0.96536 2 3 tcp 1040 ------- 1 0.0 3.0 47 77
- 0.96536 2 3 tcp 1040 ------- 1 0.0 3.0 47 77
r 0.96704 2 3 tcp 1040 ------- 1 0.0 3.0 45 73
+ 0.96704 3 2 ack 40 ------- 1 3.0 0.0 29 91
- 0.96704 3 2 ack 40 ------- 1 3.0 0.0 29 91
r 0.96904 3 2 ack 40 ------- 1 3.0 0.0 29 90
+ 0.96904 2 0 ack 40 ------- 1 3.0 0.0 29 90
- 0.96904 2 0 ack 40 ------- 1 3.0 0.0 29 90
r 0.97104 2 0 ack 40 ------- 1 3.0 0.0 29 89
- 0.972 0 2 tcp 1040 ---A--- 1 0.0 3.0 30 85
r 0.97368 0 2 tcp 1040 ------- 1 0.0 3.0 48 79
+ 0.97368 2 3 tcp 1040 ------- 1 0.0 3.0 48 79
- 0.97368 2 3 tcp 1040 ------- 1 0.0 3.0 48 79
r 0.97536 2 3 tcp 1040 ------- 1 0.0 3.0 46 75
+ 0.97536 3 2 ack 40 ------- 1 3.0 0.0 29 92
- 0.97536 3 2 ack 40 ------- 1 3.0 0.0 29 92
r 0.97736 3 2 ack 40 ------- 1 3.0 0.0 29 91
+ 0.97736 2 0 ack 40 ------- 1 3.0 0.0 29 91
- 0.97736 2 0 ack 40 ------- 1 3.0 0.0 29 91
r 0.97936 2 0 ack 40 ------- 1 3.0 0.0 29 90
r 0.982 0 2 tcp 1040 ------- 1 0.0 3.0 49 81
+ 0.982 2 3 tcp 1040 ------- 1 0.0 3.0 49 81
- 0.982 2 3 tcp 1040 ------- 1 0.0 3.0 49 81
r 0.98368 2 3 tcp 1040 ------- 1 0.0 3.0 47 77
+ 0.98368 3 2 ack 40 ------- 1 3.0 0.0 29 93
- 0.98368 3 2 ack 40 ------- 1 3.0 0.0 29 93
r 0.98568 3 2 ack 40 ------- 1 3.0 0.0 29 92
+ 0.98568 2 0 ack 40 ------- 1 3.0 0.0 29 92
- 0.98568 2 0 ack 40 ------- 1 3.0 0.0 29 92
r 0.98768 2 0 ack 40 ------- 1 3.0 0.0 29 91
r 0.99032 0 2 tcp 1040 ---A--- 1 0.0 3.0 30 85
+ 0.99032 2 3 tcp 1040 ---A--- 1 0.0 3.0 30 85
- 0.99032 2 3 tcp 1040 ---A--- 1 0.0 3.0 30 85
r 0.992 2 3 tcp 1040 ------- 1 0.0 3.0 48 79
+ 0.992 3 2 ack 40 ------- 1 3.0 0.0 29 94
- 0.992 3 2 ack 40 ------- 1 3.0 0.0 29 94
r 0.994 3 2 ack 40 ------- 1 3.0 0.0 29 93
+ 0.994 2 0 ack 40 ------- 1 3.0 0.0 29 93
- 0.994 2 0 ack 40 ------- 1 3.0 0.0 29 93
r 0.996 2 0 ack 40 ------- 1 3.0 0.0 29 92
r 1.00032 2 3 tcp 1040 ------- 1 0.0 3.0 49 81
+ 1.00032 3 2 ack 40 ------- 1 3.0 0.0 29 95
- 1.00032 3 2 ack 40 ------- 1 3.0 0.0 29 95
r 1.00232 3 2 ack 40 ------- 1 3.0 0.0 29 94
+ 1.00232 2 0 ack 40 ------- 1 3.0 0.0 29 94
- 1.00232 2 0 ack 40 ------- 1 3.0 0.0 29 94
r 1.00432 2 0 ack 40 ------- 1 3.0 0.0 29 93
r 1.00864 2 3 tcp 1040 ---A--- 1 0.0 3.0 30 85
+ 1.00864 3 2 ack 40 ------- 1 3.0 0.0 31 96
- 1.00864 3 2 ack 40 ------- 1 3.0 0.0 31 96
r 1.01064 3 2 ack 40 ------- 1 3.0 0.0 29 95
+ 1.01064 2 0 ack 40 ------- 1 3.0 0.0 29 95
- 1.01064 2 0 ack 40 ------- 1 3.0 0.0 29 95
r 1.01264 2 0 ack 40 ------- 1 3.0 0.0 29 94
r 1.01896 3 2 ack 40 ------- 1 3.0 0.0 31 96
+ 1.01896 2 0 ack 40 ------- 1 3.0 0.0 31 96
- 1.01896 2 0 ack 40 ------- 1 3.0 0.0 31 96
r 1.02096 2 0 ack 40 ------- 1 3.0 0.0 29 95
r 1.02928 2 0 ack 40 ------- 1 3.0 0.0 31 96
+ 1.02928 0 2 tcp 1040 ------- 1 0.0 3.0 32 97
- 1.02928 0 2 tcp 1040 ------- 1 0.0 3.0 32 97
+ 1.02928 0 2 tcp 1040 ------- 1 0.0 3.0 33 98
- 1.0376 0 2 tcp 1040 ------- 1 0.0 3.0 33 98
r 1.0476 0 2 tcp 1040 ------- 1 0.0 3.0 32 97
+ 1.0476 2 3 tcp 1040 ------- 1 0.0 3.0 32 97
- 1.0476 2 3 tcp 1040 ------- 1 0.0 3.0 32 97
r 1.05592 0 2 tcp 1040 ------- 1 0.0 3.0 33 98
+ 1.05592 2 3 tcp 1040 ------- 1 0.0 3.0 33 98
- 1.05592 2 3 tcp 1040 ------- 1 0.0 3.0 33 98
r 1.06592 2 3 tcp 1040 ------- 1 0.0 3.0 32 97
+ 1.06592 3 2 ack 40 ------- 1 3.0 0.0 33 99
- 1.06592 3 2 ack 40 ------- 1 3.0 0.0 33 99
r 1.07424 2 3 tcp 1040 ------- 1 0.0 3.0 33 98
+ 1.07424 3 2 ack 40 ------- 1 3.0 0.0 33 100
- 1.07424 3 2 ack 40 ------- 1 3.0 0.0 33 100
r 1.07624 3 2 ack 40 ------- 1 3.0 0.0 33 99
+ 1.07624 2 0 ack 40 ------- 1 3.0 0.0 33 99
- 1.07624 2 0 ack 40 ------- 1 3.0 0.0 33 99
r 1.08456 3 2 ack 40 ------- 1 3.0 0.0 33 100
+ 1.08456 2 0 ack 40 ------- 1 3.0 0.0 33 100
- 1.08456 2 0 ack 40 ------- 1 3.0 0.0 33 100
r 1.08656 2 0 ack 40 ------- 1 3.0 0.0 33 99
+ 1.08656 0 2 tcp 1040 ------- 1 0.0 3.0 34 101
- 1.08656 0 2 tcp 1040 ------- 1 0.0 3.0 34 101
+ 1.08656 0 2 tcp 1040 ------- 1 0.0 3.0 35 102
+ 1.08656 0 2 tcp 1040 ------- 1 0.0 3.0 36 103
r 1.09488 2 0 ack 40 ------- 1 3.0 0.0 33 100
+ 1.09488 0 2 tcp 1040 ------- 1 0.0 3.0 37 104
- 1.09488 0 2 tcp 1040 ------- 1 0.0 3.0 35 102
- 1.1032 0 2 tcp 1040 ------- 1 0.0 3.0 36 103
r 1.10488 0 2 tcp 1040 ------- 1 0.0 3.0 34 101
+ 1.10488 2 3 tcp 1040 ------- 1 0.0 3.0 34 101
- 1.10488 2 3 tcp 1040 ------- 1 0.0 3.0 34 101
- 1.11152 0 2 tcp 1040 ------- 1 0.0 3.0 37 104
r 1.1132 0 2 tcp 1040 ------- 1 0.0 3.0 35 102
+ 1.1132 2 3 tcp 1040 ------- 1 0.0 3.0 35 102
- 1.1132 2 3 tcp 1040 ------- 1 0.0 3.0 35 102
r 1.12152 0 2 tcp 1040 ------- 1 0.0 3.0 36 103
+ 1.12152 2 3 tcp 1040 ------- 1 0.0 3.0 36 103
- 1.12152 2 3 tcp 1040 ------- 1 0.0 3.0 36 103
r 1.1232 2 3 tcp 1040 ------- 1 0.0 3.0 34 101
+ 1.1232 3 2 ack 40 ------- 1 3.0 0.0 35 105
- 1.1232 3 2 ack 40 ------- 1 3.0 0.0 35 105
r 1.12984 0 2 tcp 1040 ------- 1 0.0 3.0 37 104
+ 1.12984 2 3 tcp 1040 ------- 1 0.0 3.0 37 104
- 1.12984 2 3 tcp 1040 ------- 1 0.0 3.0 37 104
r 1.13152 2 3 tcp 1040 ------- 1 0.0 3.0 35 102
+ 1.13152 3 2 ack 40 ------- 1 3.0 0.0 35 106
- 1.13152 3 2 ack 40 ------- 1 3.0 0.0 35 106
r 1.13352 3 2 ack 40 ------- 1 3.0 0.0 35 105
+ 1.13352 2 0 ack 40 ------- 1 3.0 0.0 35 105
- 1.13352 2 0 ack 40 ------- 1 3.0 0.0 35 105
r 1.13984 2 3 tcp 1040 ------- 1 0.0 3.0 36 103
+ 1.13984 3 2 ack 40 ------- 1 3.0 0.0 37 107
- 1.13984 3 2 ack 40 ------- 1 3.0 0.0 37 107
r 1.14184 3 2 ack 40 ------- 1 3.0 0.0 35 106
+ 1.14184 2 0 ack 40 ------- 1 3.0 0.0 35 106
- 1.14184 2 0 ack 40 ------- 1 3.0 0.0 35 106
r 1.14384 2 0 ack 40 ------- 1 3.0 0.0 35 105
+ 1.14384 0 2 tcp 1040 ------- 1 0.0 3.0 38 108
- 1.14384 0 2 tcp 1040 ------- 1 0.0 3.0 38 108
+ 1.14384 0 2 tcp 1040 ------- 1 0.0 3.0 39 109
r 1.14816 2 3 tcp 1040 ------- 1 0.0 3.0 37 104
+ 1.14816 3 2 ack 40 ------- 1 3.0 0.0 37 110
- 1.14816 3 2 ack 40 ------- 1 3.0 0.0 37 110
r 1.15016 3 2 ack 40 ------- 1 3.0 0.0 37 107
+ 1.15016 2 0 ack 40 ------- 1 3.0 0.0 37 107
- 1.15016 2 0 ack 40 ------- 1 3.0 0.0 37 107
r 1.15216 2 0 ack 40 ------- 1 3.0 0.0 35 106
+ 1.15216 0 2 tcp 1040 ------- 1 0.0 3.0 40 111
- 1.15216 0 2 tcp 1040 ------- 1 0.0 3.0 39 109
r 1.15848 3 2 ack 40 ------- 1 3.0 0.0 37 110
+ 1.15848 2 0 ack 40 ------- 1 3.0 0.0 37 110
- 1.15848 2 0 ack 40 ------- 1 3.0 0.0 37 110
r 1.16048 2 0 ack 40 ------- 1 3.0 0.0 37 107
+ 1.16048 0 2 tcp 1040 ------- 1 0.0 3.0 41 112
+ 1.16048 0 2 tcp 1040 ------- 1 0.0 3.0 42 113
- 1.16048 0 2 tcp 1040 ------- 1 0.0 3.0 40 111
r 1.16216 0 2 tcp 1040 ------- 1 0.0 3.0 38 108
+ 1.16216 2 3 tcp 1040 ------- 1 0.0 3.0 38 108
- 1.16216 2 3 tcp 1040 ------- 1 0.0 3.0 38 108
r 1.1688 2 0 ack 40 ------- 1 3.0 0.0 37 110
+ 1.1688 0 2 tcp 1040 ------- 1 0.0 3.0 43 114
- 1.1688 0 2 tcp 1040 ------- 1 0.0 3.0 41 112
r 1.17048 0 2 tcp 1040 ------- 1 0.0 3.0 39 109
+ 1.17048 2 3 tcp 1040 ------- 1 0.0 3.0 39 109
- 1.17048 2 3 tcp 1040 ------- 1 0.0 3.0 39 109
- 1.17712 0 2 tcp 1040 ------- 1 0.0 3.0 42 113
r 1.1788 0 2 tcp 1040 ------- 1 0.0 3.0 40 111
+ 1.1788 2 3 tcp 1040 ------- 1 0.0 3.0 40 111
- 1.1788 2 3 tcp 1040 ------- 1 0.0 3.0 40 111
r 1.18048 2 3 tcp 1040 ------- 1 0.0 3.0 38 108
+ 1.18048 3 2 ack 40 ------- 1 3.0 0.0 49 115
- 1.18048 3 2 ack 40 ------- 1 3.0 0.0 49 115