V -t * -v 1.0a5 -a 0
A -t * -n 1 -p 0 -o 0x7fffffff -c 30 -a 1
A -t * -h 1 -m 1073741823 -s 0
c -t * -i 1 -n Blue
c -t * -i 2 -n Red
n -t * -a 4 -s 4 -S UP -v circle -c Blue -i Blue
n -t * -a 0 -s 0 -S UP -v circle -c Blue -i Blue
n -t * -a 5 -s 5 -S UP -v box -c Red -i Red
n -t * -a 1 -s 1 -S UP -v box -c Red -i Red
n -t * -a 2 -s 2 -S UP -v circle -c black -i black
n -t * -a 3 -s 3 -S UP -v circle -c black -i black
l -t * -s 0 -d 2 -S UP -r 2000000 -D 0.01 -c black -o right-down
l -t * -s 1 -d 2 -S UP -r 2000000 -D 0.01 -c black -o right-up
l -t * -s 2 -d 3 -S UP -r 2000000 -D 0.10000000000000001 -c black -o right
X -t * -n 6 -r 0.5Mb -D 40ms -o left
L -t * -s 6 -d 3 -o up
L -t * -s 6 -d 4 -o down
L -t * -s 6 -d 5 -o up
n -t 0 -s 0 -S DLABEL -l "TCP_Traffic" -L ""
n -t 0 -s 1 -S DLABEL -l "UDP_Traffic" -L ""
+ -t 0.3 -s 1 -d 2 -p cbr -e 1000 -c 2 -i 0 -a 2 -x {1.0 5.0 0 ------- null}
- -t 0.3 -s 1 -d 2 -p cbr -e 1000 -c 2 -i 0 -a 2 -x {1.0 5.0 0 ------- null}
h -t 0.3 -s 1 -d 2 -p cbr -e 1000 -c 2 -i 0 -a 2 -x {1.0 5.0 -1 ------- null}
r -t 0.314 -s 1 -d 2 -p cbr -e 1000 -c 2 -i 0 -a 2 -x {1.0 5.0 0 ------- null}
+ -t 0.314 -s 2 -d 3 -p cbr -e 1000 -c 2 -i 0 -a 2 -x {1.0 5.0 0 ------- null}
- -t 0.314 -s 2 -d 3 -p cbr -e 1000 -c 2 -i 0 -a 2 -x {1.0 5.0 0 ------- null}
h -t 0.314 -s 2 -d 3 -p cbr -e 1000 -c 2 -i 0 -a 2 -x {1.0 5.0 -1 ------- null}
r -t 0.418 -s 2 -d 3 -p cbr -e 1000 -c 2 -i 0 -a 2 -x {1.0 5.0 0 ------- null}
h -t 0.418 -s 3 -d 6 -p cbr -e 1000 -c 2 -i 0 -a 2 -x {1.0 5.0 0 ------- null}
+ -t 0.458 -s 3 -d 6 -p cbr -e 1000 -c 2 -i 0 -a 2 -x {1.0 5.0 0 ------- null}
- -t 0.458 -s 3 -d 6 -p cbr -e 1000 -c 2 -i 0 -a 2 -x {1.0 5.0 0 ------- null}
h -t 0.458 -s 3 -d 6 -p cbr -e 1000 -c 2 -i 0 -a 2 -x {1.0 5.0 -1 ------- null}
d -t 0.458004 -s 4 -d 6 -p cbr -e 1000 -c 2 -i 0 -a 2 -x {1.0 5.0 0 ------- null}
+ -t 0.46 -s 1 -d 2 -p cbr -e 1000 -c 2 -i 1 -a 2 -x {1.0 5.0 1 ------- null}
- -t 0.46 -s 1 -d 2 -p cbr -e 1000 -c 2 -i 1 -a 2 -x {1.0 5.0 1 ------- null}
h -t 0.46 -s 1 -d 2 -p cbr -e 1000 -c 2 -i 1 -a 2 -x {1.0 5.0 -1 ------- null}
r -t 0.474 -s 1 -d 2 -p cbr -e 1000 -c 2 -i 1 -a 2 -x {1.0 5.0 1 ------- null}
+ -t 0.474 -s 2 -d 3 -p cbr -e 1000 -c 2 -i 1 -a 2 -x {1.0 5.0 1 ------- null}
- -t 0.474 -s 2 -d 3 -p cbr -e 1000 -c 2 -i 1 -a 2 -x {1.0 5.0 1 ------- null}
h -t 0.474 -s 2 -d 3 -p cbr -e 1000 -c 2 -i 1 -a 2 -x {1.0 5.0 -1 ------- null}
r -t 0.498004 -s 6 -d 5 -p cbr -e 1000 -c 2 -i 0 -a 2 -x {1.0 5.0 0 ------- null}
r -t 0.578 -s 2 -d 3 -p cbr -e 1000 -c 2 -i 1 -a 2 -x {1.0 5.0 1 ------- null}
h -t 0.578 -s 3 -d 6 -p cbr -e 1000 -c 2 -i 1 -a 2 -x {1.0 5.0 1 ------- null}
+ -t 0.618 -s 3 -d 6 -p cbr -e 1000 -c 2 -i 1 -a 2 -x {1.0 5.0 1 ------- null}
- -t 0.618 -s 3 -d 6 -p cbr -e 1000 -c 2 -i 1 -a 2 -x {1.0 5.0 1 ------- null}
h -t 0.618 -s 3 -d 6 -p cbr -e 1000 -c 2 -i 1 -a 2 -x {1.0 5.0 -1 ------- null}
d -t 0.618004 -s 4 -d 6 -p cbr -e 1000 -c 2 -i 1 -a 2 -x {1.0 5.0 1 ------- null}
+ -t 0.62 -s 1 -d 2 -p cbr -e 1000 -c 2 -i 2 -a 2 -x {1.0 5.0 2 ------- null}
- -t 0.62 -s 1 -d 2 -p cbr -e 1000 -c 2 -i 2 -a 2 -x {1.0 5.0 2 ------- null}
h -t 0.62 -s 1 -d 2 -p cbr -e 1000 -c 2 -i 2 -a 2 -x {1.0 5.0 -1 ------- null}
r -t 0.634 -s 1 -d 2 -p cbr -e 1000 -c 2 -i 2 -a 2 -x {1.0 5.0 2 ------- null}
+ -t 0.634 -s 2 -d 3 -p cbr -e 1000 -c 2 -i 2 -a 2 -x {1.0 5.0 2 ------- null}
- -t 0.634 -s 2 -d 3 -p cbr -e 1000 -c 2 -i 2 -a 2 -x {1.0 5.0 2 ------- null}
h -t 0.634 -s 2 -d 3 -p cbr -e 1000 -c 2 -i 2 -a 2 -x {1.0 5.0 -1 ------- null}
r -t 0.658004 -s 6 -d 5 -p cbr -e 1000 -c 2 -i 1 -a 2 -x {1.0 5.0 1 ------- null}
r -t 0.738 -s 2 -d 3 -p cbr -e 1000 -c 2 -i 2 -a 2 -x {1.0 5.0 2 ------- null}
h -t 0.738 -s 3 -d 6 -p cbr -e 1000 -c 2 -i 2 -a 2 -x {1.0 5.0 2 ------- null}
+ -t 0.778 -s 3 -d 6 -p cbr -e 1000 -c 2 -i 2 -a 2 -x {1.0 5.0 2 ------- null}
- -t 0.778 -s 3 -d 6 -p cbr -e 1000 -c 2 -i 2 -a 2 -x {1.0 5.0 2 ------- null}
h -t 0.778 -s 3 -d 6 -p cbr -e 1000 -c 2 -i 2 -a 2 -x {1.0 5.0 -1 ------- null}
d -t 0.778004 -s 4 -d 6 -p cbr -e 1000 -c 2 -i 2 -a 2 -x {1.0 5.0 2 ------- null}
+ -t 0.78 -s 1 -d 2 -p cbr -e 1000 -c 2 -i 3 -a 2 -x {1.0 5.0 3 ------- null}
- -t 0.78 -s 1 -d 2 -p cbr -e 1000 -c 2 -i 3 -a 2 -x {1.0 5.0 3 ------- null}
h -t 0.78 -s 1 -d 2 -p cbr -e 1000 -c 2 -i 3 -a 2 -x {1.0 5.0 -1 ------- null}
r -t 0.794 -s 1 -d 2 -p cbr -e 1000 -c 2 -i 3 -a 2 -x {1.0 5.0 3 ------- null}
+ -t 0.794 -s 2 -d 3 -p cbr -e 1000 -c 2 -i 3 -a 2 -x {1.0 5.0 3 ------- null}
- -t 0.794 -s 2 -d 3 -p cbr -e 1000 -c 2 -i 3 -a 2 -x {1.0 5.0 3 ------- null}
h -t 0.794 -s 2 -d 3 -p cbr -e 1000 -c 2 -i 3 -a 2 -x {1.0 5.0 -1 ------- null}
+ -t 0.8 -s 0 -d 2 -p tcp -e 40 -c 1 -i 4 -a 1 -x {0.0 4.0 0 ------- null}
- -t 0.8 -s 0 -d 2 -p tcp -e 40 -c 1 -i 4 -a 1 -x {0.0 4.0 0 ------- null}
h -t 0.8 -s 0 -d 2 -p tcp -e 40 -c 1 -i 4 -a 1 -x {0.0 4.0 -1 ------- null}
r -t 0.81016 -s 0 -d 2 -p tcp -e 40 -c 1 -i 4 -a 1 -x {0.0 4.0 0 ------- null}
+ -t 0.81016 -s 2 -d 3 -p tcp -e 40 -c 1 -i 4 -a 1 -x {0.0 4.0 0 ------- null}
- -t 0.81016 -s 2 -d 3 -p tcp -e 40 -c 1 -i 4 -a 1 -x {0.0 4.0 0 ------- null}
h -t 0.81016 -s 2 -d 3 -p tcp -e 40 -c 1 -i 4 -a 1 -x {0.0 4.0 -1 ------- null}
r -t 0.818004 -s 6 -d 5 -p cbr -e 1000 -c 2 -i 2 -a 2 -x {1.0 5.0 2 ------- null}
r -t 0.898 -s 2 -d 3 -p cbr -e 1000 -c 2 -i 3 -a 2 -x {1.0 5.0 3 ------- null}
h -t 0.898 -s 3 -d 6 -p cbr -e 1000 -c 2 -i 3 -a 2 -x {1.0 5.0 3 ------- null}
r -t 0.91032 -s 2 -d 3 -p tcp -e 40 -c 1 -i 4 -a 1 -x {0.0 4.0 0 ------- null}
h -t 0.91032 -s 3 -d 6 -p tcp -e 40 -c 1 -i 4 -a 1 -x {0.0 4.0 0 ------- null}
+ -t 0.938 -s 3 -d 6 -p cbr -e 1000 -c 2 -i 3 -a 2 -x {1.0 5.0 3 ------- null}
- -t 0.938 -s 3 -d 6 -p cbr -e 1000 -c 2 -i 3 -a 2 -x {1.0 5.0 3 ------- null}
h -t 0.938 -s 3 -d 6 -p cbr -e 1000 -c 2 -i 3 -a 2 -x {1.0 5.0 -1 ------- null}
d -t 0.938004 -s 4 -d 6 -p cbr -e 1000 -c 2 -i 3 -a 2 -x {1.0 5.0 3 ------- null}
+ -t 0.94 -s 1 -d 2 -p cbr -e 1000 -c 2 -i 5 -a 2 -x {1.0 5.0 4 ------- null}
- -t 0.94 -s 1 -d 2 -p cbr -e 1000 -c 2 -i 5 -a 2 -x {1.0 5.0 4 ------- null}
h -t 0.94 -s 1 -d 2 -p cbr -e 1000 -c 2 -i 5 -a 2 -x {1.0 5.0 -1 ------- null}
+ -t 0.95032 -s 3 -d 6 -p tcp -e 40 -c 1 -i 4 -a 1 -x {0.0 4.0 0 ------- null}
- -t 0.95032 -s 3 -d 6 -p tcp -e 40 -c 1 -i 4 -a 1 -x {0.0 4.0 0 ------- null}
h -t 0.95032 -s 3 -d 6 -p tcp -e 40 -c 1 -i 4 -a 1 -x {0.0 4.0 -1 ------- null}
d -t 0.950324 -s 5 -d 6 -p tcp -e 40 -c 1 -i 4 -a 1 -x {0.0 4.0 0 ------- null}
r -t 0.954 -s 1 -d 2 -p cbr -e 1000 -c 2 -i 5 -a 2 -x {1.0 5.0 4 ------- null}
+ -t 0.954 -s 2 -d 3 -p cbr -e 1000 -c 2 -i 5 -a 2 -x {1.0 5.0 4 ------- null}
- -t 0.954 -s 2 -d 3 -p cbr -e 1000 -c 2 -i 5 -a 2 -x {1.0 5.0 4 ------- null}
h -t 0.954 -s 2 -d 3 -p cbr -e 1000 -c 2 -i 5 -a 2 -x {1.0 5.0 -1 ------- null}
r -t 0.978004 -s 6 -d 5 -p cbr -e 1000 -c 2 -i 3 -a 2 -x {1.0 5.0 3 ------- null}
r -t 0.990324 -s 6 -d 4 -p tcp -e 40 -c 1 -i 4 -a 1 -x {0.0 4.0 0 ------- null}
h -t 0.990324 -s 4 -d 6 -p ack -e 40 -c 1 -i 6 -a 1 -x {4.0 0.0 0 ------- null}
+ -t 1.030324 -s 4 -d 6 -p ack -e 40 -c 1 -i 6 -a 1 -x {4.0 0.0 0 ------- null}
- -t 1.030324 -s 4 -d 6 -p ack -e 40 -c 1 -i 6 -a 1 -x {4.0 0.0 0 ------- null}
h -t 1.030324 -s 4 -d 6 -p ack -e 40 -c 1 -i 6 -a 1 -x {4.0 0.0 -1 ------- null}
d -t 1.030328 -s 5 -d 6 -p ack -e 40 -c 1 -i 6 -a 1 -x {4.0 0.0 0 ------- null}
r -t 1.058 -s 2 -d 3 -p cbr -e 1000 -c 2 -i 5 -a 2 -x {1.0 5.0 4 ------- null}
h -t 1.058 -s 3 -d 6 -p cbr -e 1000 -c 2 -i 5 -a 2 -x {1.0 5.0 4 ------- null}
r -t 1.070328 -s 6 -d 3 -p ack -e 40 -c 1 -i 6 -a 1 -x {4.0 0.0 0 ------- null}
+ -t 1.070328 -s 3 -d 2 -p ack -e 40 -c 1 -i 6 -a 1 -x {4.0 0.0 0 ------- null}
- -t 1.070328 -s 3 -d 2 -p ack -e 40 -c 1 -i 6 -a 1 -x {4.0 0.0 0 ------- null}
h -t 1.070328 -s 3 -d 2 -p ack -e 40 -c 1 -i 6 -a 1 -x {4.0 0.0 -1 ------- null}
+ -t 1.098 -s 3 -d 6 -p cbr -e 1000 -c 2 -i 5 -a 2 -x {1.0 5.0 4 ------- null}
- -t 1.098 -s 3 -d 6 -p cbr -e 1000 -c 2 -i 5 -a 2 -x {1.0 5.0 4 ------- null}
h -t 1.098 -s 3 -d 6 -p cbr -e 1000 -c 2 -i 5 -a 2 -x {1.0 5.0 -1 ------- null}
d -t 1.098004 -s 4 -d 6 -p cbr -e 1000 -c 2 -i 5 -a 2 -x {1.0 5.0 4 ------- null}
+ -t 1.1 -s 1 -d 2 -p cbr -e 1000 -c 2 -i 7 -a 2 -x {1.0 5.0 5 ------- null}
- -t 1.1 -s 1 -d 2 -p cbr -e 1000 -c 2 -i 7 -a 2 -x {1.0 5.0 5 ------- null}
h -t 1.1 -s 1 -d 2 -p cbr -e 1000 -c 2 -i 7 -a 2 -x {1.0 5.0 -1 ------- null}
r -t 1.114 -s 1 -d 2 -p cbr -e 1000 -c 2 -i 7 -a 2 -x {1.0 5.0 5 ------- null}
+ -t 1.114 -s 2 -d 3 -p cbr -e 1000 -c 2 -i 7 -a 2 -x {1.0 5.0 5 ------- null}
- -t 1.114 -s 2 -d 3 -p cbr -e 1000 -c 2 -i 7 -a 2 -x {1.0 5.0 5 ------- null}
h -t 1.114 -s 2 -d 3 -p cbr -e 1000 -c 2 -i 7 -a 2 -x {1.0 5.0 -1 ------- null}
r -t 1.138004 -s 6 -d 5 -p cbr -e 1000 -c 2 -i 5 -a 2 -x {1.0 5.0 4 ------- null}
r -t 1.170488 -s 3 -d 2 -p ack -e 40 -c 1 -i 6 -a 1 -x {4.0 0.0 0 ------- null}
+ -t 1.170488 -s 2 -d 0 -p ack -e 40 -c 1 -i 6 -a 1 -x {4.0 0.0 0 ------- null}
- -t 1.170488 -s 2 -d 0 -p ack -e 40 -c 1 -i 6 -a 1 -x {4.0 0.0 0 ------- null}
h -t 1.170488 -s 2 -d 0 -p ack -e 40 -c 1 -i 6 -a 1 -x {4.0 0.0 -1 ------- null}
r -t 1.180648 -s 2 -d 0 -p ack -e 40 -c 1 -i 6 -a 1 -x {4.0 0.0 0 ------- null}
+ -t 1.180648 -s 0 -d 2 -p tcp -e 1040 -c 1 -i 8 -a 1 -x {0.0 4.0 1 ------- null}
- -t 1.180648 -s 0 -d 2 -p tcp -e 1040 -c 1 -i 8 -a 1 -x {0.0 4.0 1 ------- null}
h -t 1.180648 -s 0 -d 2 -p tcp -e 1040 -c 1 -i 8 -a 1 -x {0.0 4.0 -1 ------- null}
+ -t 1.180648 -s 0 -d 2 -p tcp -e 1040 -c 1 -i 9 -a 1 -x {0.0 4.0 2 ------- null}
- -t 1.184808 -s 0 -d 2 -p tcp -e 1040 -c 1 -i 9 -a 1 -x {0.0 4.0 2 ------- null}
h -t 1.184808 -s 0 -d 2 -p tcp -e 1040 -c 1 -i 9 -a 1 -x {0.0 4.0 -1 ------- null}
r -t 1.194808 -s 0 -d 2 -p tcp -e 1040 -c 1 -i 8 -a 1 -x {0.0 4.0 1 ------- null}
+ -t 1.194808 -s 2 -d 3 -p tcp -e 1040 -c 1 -i 8 -a 1 -x {0.0 4.0 1 ------- null}
- -t 1.194808 -s 2 -d 3 -p tcp -e 1040 -c 1 -i 8 -a 1 -x {0.0 4.0 1 ------- null}
h -t 1.194808 -s 2 -d 3 -p tcp -e 1040 -c 1 -i 8 -a 1 -x {0.0 4.0 -1 ------- null}
r -t 1.198968 -s 0 -d 2 -p tcp -e 1040 -c 1 -i 9 -a 1 -x {0.0 4.0 2 ------- null}
+ -t 1.198968 -s 2 -d 3 -p tcp -e 1040 -c 1 -i 9 -a 1 -x {0.0 4.0 2 ------- null}
- -t 1.198968 -s 2 -d 3 -p tcp -e 1040 -c 1 -i 9 -a 1 -x {0.0 4.0 2 ------- null}
h -t 1.198968 -s 2 -d 3 -p tcp -e 1040 -c 1 -i 9 -a 1 -x {0.0 4.0 -1 ------- null}
r -t 1.218 -s 2 -d 3 -p cbr -e 1000 -c 2 -i 7 -a 2 -x {1.0 5.0 5 ------- null}
h -t 1.218 -s 3 -d 6 -p cbr -e 1000 -c 2 -i 7 -a 2 -x {1.0 5.0 5 ------- null}
+ -t 1.258 -s 3 -d 6 -p cbr -e 1000 -c 2 -i 7 -a 2 -x {1.0 5.0 5 ------- null}
- -t 1.258 -s 3 -d 6 -p cbr -e 1000 -c 2 -i 7 -a 2 -x {1.0 5.0 5 ------- null}
h -t 1.258 -s 3 -d 6 -p cbr -e 1000 -c 2 -i 7 -a 2 -x {1.0 5.0 -1 ------- null}
d -t 1.258004 -s 4 -d 6 -p cbr -e 1000 -c 2 -i 7 -a 2 -x {1.0 5.0 5 ------- null}
+ -t 1.26 -s 1 -d 2 -p cbr -e 1000 -c 2 -i 10 -a 2 -x {1.0 5.0 6 ------- null}
- -t 1.26 -s 1 -d 2 -p cbr -e 1000 -c 2 -i 10 -a 2 -x {1.0 5.0 6 ------- null}
h -t 1.26 -s 1 -d 2 -p cbr -e 1000 -c 2 -i 10 -a 2 -x {1.0 5.0 -1 ------- null}
r -t 1.274 -s 1 -d 2 -p cbr -e 1000 -c 2 -i 10 -a 2 -x {1.0 5.0 6 ------- null}
+ -t 1.274 -s 2 -d 3 -p cbr -e 1000 -c 2 -i 10 -a 2 -x {1.0 5.0 6 ------- null}
- -t 1.274 -s 2 -d 3 -p cbr -e 1000 -c 2 -i 10 -a 2 -x {1.0 5.0 6 ------- null}
h -t 1.274 -s 2 -d 3 -p cbr -e 1000 -c 2 -i 10 -a 2 -x {1.0 5.0 -1 ------- null}
r -t 1.298004 -s 6 -d 5 -p cbr -e 1000 -c 2 -i 7 -a 2 -x {1.0 5.0 5 ------- null}
r -t 1.298968 -s 2 -d 3 -p tcp -e 1040 -c 1 -i 8 -a 1 -x {0.0 4.0 1 ------- null}
h -t 1.298968 -s 3 -d 6 -p tcp -e 1040 -c 1 -i 8 -a 1 -x {0.0 4.0 1 ------- null}
r -t 1.303128 -s 2 -d 3 -p tcp -e 1040 -c 1 -i 9 -a 1 -x {0.0 4.0 2 ------- null}
h -t 1.303128 -s 3 -d 6 -p tcp -e 1040 -c 1 -i 9 -a 1 -x {0.0 4.0 2 ------- null}
+ -t 1.338968 -s 3 -d 6 -p tcp -e 1040 -c 1 -i 8 -a 1 -x {0.0 4.0 1 ------- null}
- -t 1.338968 -s 3 -d 6 -p tcp -e 1040 -c 1 -i 8 -a 1 -x {0.0 4.0 1 ------- null}
h -t 1.338968 -s 3 -d 6 -p tcp -e 1040 -c 1 -i 8 -a 1 -x {0.0 4.0 -1 ------- null}
d -t 1.338972 -s 5 -d 6 -p tcp -e 1040 -c 1 -i 8 -a 1 -x {0.0 4.0 1 ------- null}
+ -t 1.343128 -s 3 -d 6 -p tcp -e 1040 -c 1 -i 9 -a 1 -x {0.0 4.0 2 ------- null}
- -t 1.343384 -s 3 -d 6 -p tcp -e 1040 -c 1 -i 9 -a 1 -x {0.0 4.0 2 ------- null}
h -t 1.343384 -s 3 -d 6 -p tcp -e 1040 -c 1 -i 9 -a 1 -x {0.0 4.0 -1 ------- null}
d -t 1.343388 -s 5 -d 6 -p tcp -e 1040 -c 1 -i 9 -a 1 -x {0.0 4.0 2 ------- null}
r -t 1.378 -s 2 -d 3 -p cbr -e 1000 -c 2 -i 10 -a 2 -x {1.0 5.0 6 ------- null}
h -t 1.378 -s 3 -d 6 -p cbr -e 1000 -c 2 -i 10 -a 2 -x {1.0 5.0 6 ------- null}
r -t 1.378972 -s 6 -d 4 -p tcp -e 1040 -c 1 -i 8 -a 1 -x {0.0 4.0 1 ------- null}
h -t 1.378972 -s 4 -d 6 -p ack -e 40 -c 1 -i 11 -a 1 -x {4.0 0.0 1 ------- null}
r -t 1.383388 -s 6 -d 4 -p tcp -e 1040 -c 1 -i 9 -a 1 -x {0.0 4.0 2 ------- null}
h -t 1.383388 -s 4 -d 6 -p ack -e 40 -c 1 -i 12 -a 1 -x {4.0 0.0 2 ------- null}
+ -t 1.418 -s 3 -d 6 -p cbr -e 1000 -c 2 -i 10 -a 2 -x {1.0 5.0 6 ------- null}
- -t 1.418 -s 3 -d 6 -p cbr -e 1000 -c 2 -i 10 -a 2 -x {1.0 5.0 6 ------- null}
h -t 1.418 -s 3 -d 6 -p cbr -e 1000 -c 2 -i 10 -a 2 -x {1.0 5.0 -1 ------- null}
d -t 1.418004 -s 4 -d 6 -p cbr -e 1000 -c 2 -i 10 -a 2 -x {1.0 5.0 6 ------- null}
+ -t 1.418972 -s 4 -d 6 -p ack -e 40 -c 1 -i 11 -a 1 -x {4.0 0.0 1 ------- null}
- -t 1.418972 -s 4 -d 6 -p ack -e 40 -c 1 -i 11 -a 1 -x {4.0 0.0 1 ------- null}
h -t 1.418972 -s 4 -d 6 -p ack -e 40 -c 1 -i 11 -a 1 -x {4.0 0.0 -1 ------- null}
d -t 1.418976 -s 5 -d 6 -p ack -e 40 -c 1 -i 11 -a 1 -x {4.0 0.0 1 ------- null}
+ -t 1.42 -s 1 -d 2 -p cbr -e 1000 -c 2 -i 13 -a 2 -x {1.0 5.0 7 ------- null}
- -t 1.42 -s 1 -d 2 -p cbr -e 1000 -c 2 -i 13 -a 2 -x {1.0 5.0 7 ------- null}
h -t 1.42 -s 1 -d 2 -p cbr -e 1000 -c 2 -i 13 -a 2 -x {1.0 5.0 -1 ------- null}
+ -t 1.423388 -s 4 -d 6 -p ack -e 40 -c 1 -i 12 -a 1 -x {4.0 0.0 2 ------- null}
- -t 1.423388 -s 4 -d 6 -p ack -e 40 -c 1 -i 12 -a 1 -x {4.0 0.0 2 ------- null}
h -t 1.423388 -s 4 -d 6 -p ack -e 40 -c 1 -i 12 -a 1 -x {4.0 0.0 -1 ------- null}
d -t 1.423392 -s 5 -d 6 -p ack -e 40 -c 1 -i 12 -a 1 -x {4.0 0.0 2 ------- null}
r -t 1.434 -s 1 -d 2 -p cbr -e 1000 -c 2 -i 13 -a 2 -x {1.0 5.0 7 ------- null}
+ -t 1.434 -s 2 -d 3 -p cbr -e 1000 -c 2 -i 13 -a 2 -x {1.0 5.0 7 ------- null}
- -t 1.434 -s 2 -d 3 -p cbr -e 1000 -c 2 -i 13 -a 2 -x {1.0 5.0 7 ------- null}
h -t 1.434 -s 2 -d 3 -p cbr -e 1000 -c 2 -i 13 -a 2 -x {1.0 5.0 -1 ------- null}
r -t 1.458004 -s 6 -d 5 -p cbr -e 1000 -c 2 -i 10 -a 2 -x {1.0 5.0 6 ------- null}
r -t 1.458976 -s 6 -d 3 -p ack -e 40 -c 1 -i 11 -a 1 -x {4.0 0.0 1 ------- null}
+ -t 1.458976 -s 3 -d 2 -p ack -e 40 -c 1 -i 11 -a 1 -x {4.0 0.0 1 ------- null}
- -t 1.458976 -s 3 -d 2 -p ack -e 40 -c 1 -i 11 -a 1 -x {4.0 0.0 1 ------- null}
h -t 1.458976 -s 3 -d 2 -p ack -e 40 -c 1 -i 11 -a 1 -x {4.0 0.0 -1 ------- null}
r -t 1.463392 -s 6 -d 3 -p ack -e 40 -c 1 -i 12 -a 1 -x {4.0 0.0 2 ------- null}
+ -t 1.463392 -s 3 -d 2 -p ack -e 40 -c 1 -i 12 -a 1 -x {4.0 0.0 2 ------- null}
- -t 1.463392 -s 3 -d 2 -p ack -e 40 -c 1 -i 12 -a 1 -x {4.0 0.0 2 ------- null}
h -t 1.463392 -s 3 -d 2 -p ack -e 40 -c 1 -i 12 -a 1 -x {4.0 0.0 -1 ------- null}
r -t 1.538 -s 2 -d 3 -p cbr -e 1000 -c 2 -i 13 -a 2 -x {1.0 5.0 7 ------- null}
h -t 1.538 -s 3 -d 6 -p cbr -e 1000 -c 2 -i 13 -a 2 -x {1.0 5.0 7 ------- null}
r -t 1.559136 -s 3 -d 2 -p ack -e 40 -c 1 -i 11 -a 1 -x {4.0 0.0 1 ------- null}
+ -t 1.559136 -s 2 -d 0 -p ack -e 40 -c 1 -i 11 -a 1 -x {4.0 0.0 1 ------- null}
- -t 1.559136 -s 2 -d 0 -p ack -e 40 -c 1 -i 11 -a 1 -x {4.0 0.0 1 ------- null}
h -t 1.559136 -s 2 -d 0 -p ack -e 40 -c 1 -i 11 -a 1 -x {4.0 0.0 -1 ------- null}
r -t 1.563552 -s 3 -d 2 -p ack -e 40 -c 1 -i 12 -a 1 -x {4.0 0.0 2 ------- null}
+ -t 1.563552 -s 2 -d 0 -p ack -e 40 -c 1 -i 12 -a 1 -x {4.0 0.0 2 ------- null}
- -t 1.563552 -s 2 -d 0 -p ack -e 40 -c 1 -i 12 -a 1 -x {4.0 0.0 2 ------- null}
h -t 1.563552 -s 2 -d 0 -p ack -e 40 -c 1 -i 12 -a 1 -x {4.0 0.0 -1 ------- null}
r -t 1.569296 -s 2 -d 0 -p ack -e 40 -c 1 -i 11 -a 1 -x {4.0 0.0 1 ------- null}
+ -t 1.569296 -s 0 -d 2 -p tcp -e 1040 -c 1 -i 14 -a 1 -x {0.0 4.0 3 ------- null}
- -t 1.569296 -s 0 -d 2 -p tcp -e 1040 -c 1 -i 14 -a 1 -x {0.0 4.0 3 ------- null}
h -t 1.569296 -s 0 -d 2 -p tcp -e 1040 -c 1 -i 14 -a 1 -x {0.0 4.0 -1 ------- null}
+ -t 1.569296 -s 0 -d 2 -p tcp -e 1040 -c 1 -i 15 -a 1 -x {0.0 4.0 4 ------- null}
- -t 1.573456 -s 0 -d 2 -p tcp -e 1040 -c 1 -i 15 -a 1 -x {0.0 4.0 4 ------- null}
h -t 1.573456 -s 0 -d 2 -p tcp -e 1040 -c 1 -i 15 -a 1 -x {0.0 4.0 -1 ------- null}
r -t 1.573712 -s 2 -d 0 -p ack -e 40 -c 1 -i 12 -a 1 -x {4.0 0.0 2 ------- null}
+ -t 1.573712 -s 0 -d 2 -p tcp -e 1040 -c 1 -i 16 -a 1 -x {0.0 4.0 5 ------- null}
+ -t 1.573712 -s 0 -d 2 -p tcp -e 1040 -c 1 -i 17 -a 1 -x {0.0 4.0 6 ------- null}
- -t 1.577616 -s 0 -d 2 -p tcp -e 1040 -c 1 -i 16 -a 1 -x {0.0 4.0 5 ------- null}
h -t 1.577616 -s 0 -d 2 -p tcp -e 1040 -c 1 -i 16 -a 1 -x {0.0 4.0 -1 ------- null}
+ -t 1.578 -s 3 -d 6 -p cbr -e 1000 -c 2 -i 13 -a 2 -x {1.0 5.0 7 ------- null}
- -t 1.578 -s 3 -d 6 -p cbr -e 1000 -c 2 -i 13 -a 2 -x {1.0 5.0 7 ------- null}
h -t 1.578 -s 3 -d 6 -p cbr -e 1000 -c 2 -i 13 -a 2 -x {1.0 5.0 -1 ------- null}
d -t 1.578004 -s 4 -d 6 -p cbr -e 1000 -c 2 -i 13 -a 2 -x {1.0 5.0 7 ------- null}
+ -t 1.58 -s 1 -d 2 -p cbr -e 1000 -c 2 -i 18 -a 2 -x {1.0 5.0 8 ------- null}
- -t 1.58 -s 1 -d 2 -p cbr -e 1000 -c 2 -i 18 -a 2 -x {1.0 5.0 8 ------- null}
h -t 1.58 -s 1 -d 2 -p cbr -e 1000 -c 2 -i 18 -a 2 -x {1.0 5.0 -1 ------- null}
- -t 1.581776 -s 0 -d 2 -p tcp -e 1040 -c 1 -i 17 -a 1 -x {0.0 4.0 6 ------- null}
h -t 1.581776 -s 0 -d 2 -p tcp -e 1040 -c 1 -i 17 -a 1 -x {0.0 4.0 -1 ------- null}
r -t 1.583456 -s 0 -d 2 -p tcp -e 1040 -c 1 -i 14 -a 1 -x {0.0 4.0 3 ------- null}
+ -t 1.583456 -s 2 -d 3 -p tcp -e 1040 -c 1 -i 14 -a 1 -x {0.0 4.0 3 ------- null}
- -t 1.583456 -s 2 -d 3 -p tcp -e 1040 -c 1 -i 14 -a 1 -x {0.0 4.0 3 ------- null}
h -t 1.583456 -s 2 -d 3 -p tcp -e 1040 -c 1 -i 14 -a 1 -x {0.0 4.0 -1 ------- null}
r -t 1.587616 -s 0 -d 2 -p tcp -e 1040 -c 1 -i 15 -a 1 -x {0.0 4.0 4 ------- null}
+ -t 1.587616 -s 2 -d 3 -p tcp -e 1040 -c 1 -i 15 -a 1 -x {0.0 4.0 4 ------- null}
- -t 1.587616 -s 2 -d 3 -p tcp -e 1040 -c 1 -i 15 -a 1 -x {0.0 4.0 4 ------- null}
h -t 1.587616 -s 2 -d 3 -p tcp -e 1040 -c 1 -i 15 -a 1 -x {0.0 4.0 -1 ------- null}
r -t 1.591776 -s 0 -d 2 -p tcp -e 1040 -c 1 -i 16 -a 1 -x {0.0 4.0 5 ------- null}
+ -t 1.591776 -s 2 -d 3 -p tcp -e 1040 -c 1 -i 16 -a 1 -x {0.0 4.0 5 ------- null}
- -t 1.591776 -s 2 -d 3 -p tcp -e 1040 -c 1 -i 16 -a 1 -x {0.0 4.0 5 ------- null}
h -t 1.591776 -s 2 -d 3 -p tcp -e 1040 -c 1 -i 16 -a 1 -x {0.0 4.0 -1 ------- null}
r -t 1.594 -s 1 -d 2 -p cbr -e 1000 -c 2 -i 18 -a 2 -x {1.0 5.0 8 ------- null}
+ -t 1.594 -s 2 -d 3 -p cbr -e 1000 -c 2 -i 18 -a 2 -x {1.0 5.0 8 ------- null}
r -t 1.595936 -s 0 -d 2 -p tcp -e 1040 -c 1 -i 17 -a 1 -x {0.0 4.0 6 ------- null}
+ -t 1.595936 -s 2 -d 3 -p tcp -e 1040 -c 1 -i 17 -a 1 -x {0.0 4.0 6 ------- null}
- -t 1.595936 -s 2 -d 3 -p cbr -e 1000 -c 2 -i 18 -a 2 -x {1.0 5.0 8 ------- null}
h -t 1.595936 -s 2 -d 3 -p cbr -e 1000 -c 2 -i 18 -a 2 -x {1.0 5.0 -1 ------- null}
- -t 1.599936 -s 2 -d 3 -p tcp -e 1040 -c 1 -i 17 -a 1 -x {0.0 4.0 6 ------- null}
h -t 1.599936 -s 2 -d 3 -p tcp -e 1040 -c 1 -i 17 -a 1 -x {0.0 4.0 -1 ------- null}
r -t 1.618004 -s 6 -d 5 -p cbr -e 1000 -c 2 -i 13 -a 2 -x {1.0 5.0 7 ------- null}
r -t 1.687616 -s 2 -d 3 -p tcp -e 1040 -c 1 -i 14 -a 1 -x {0.0 4.0 3 ------- null}
h -t 1.687616 -s 3 -d 6 -p tcp -e 1040 -c 1 -i 14 -a 1 -x {0.0 4.0 3 ------- null}
r -t 1.691776 -s 2 -d 3 -p tcp -e 1040 -c 1 -i 15 -a 1 -x {0.0 4.0 4 ------- null}
h -t 1.691776 -s 3 -d 6 -p tcp -e 1040 -c 1 -i 15 -a 1 -x {0.0 4.0 4 ------- null}
r -t 1.695936 -s 2 -d 3 -p tcp -e 1040 -c 1 -i 16 -a 1 -x {0.0 4.0 5 ------- null}
h -t 1.695936 -s 3 -d 6 -p tcp -e 1040 -c 1 -i 16 -a 1 -x {0.0 4.0 5 ------- null}
r -t 1.699936 -s 2 -d 3 -p cbr -e 1000 -c 2 -i 18 -a 2 -x {1.0 5.0 8 ------- null}
h -t 1.699936 -s 3 -d 6 -p cbr -e 1000 -c 2 -i 18 -a 2 -x {1.0 5.0 8 ------- null}
r -t 1.704096 -s 2 -d 3 -p tcp -e 1040 -c 1 -i 17 -a 1 -x {0.0 4.0 6 ------- null}
h -t 1.704096 -s 3 -d 6 -p tcp -e 1040 -c 1 -i 17 -a 1 -x {0.0 4.0 6 ------- null}
+ -t 1.727616 -s 3 -d 6 -p tcp -e 1040 -c 1 -i 14 -a 1 -x {0.0 4.0 3 ------- null}
- -t 1.727616 -s 3 -d 6 -p tcp -e 1040 -c 1 -i 14 -a 1 -x {0.0 4.0 3 ------- null}
h -t 1.727616 -s 3 -d 6 -p tcp -e 1040 -c 1 -i 14 -a 1 -x {0.0 4.0 -1 ------- null}
d -t 1.72762 -s 5 -d 6 -p tcp -e 1040 -c 1 -i 14 -a 1 -x {0.0 4.0 3 ------- null}
+ -t 1.731776 -s 3 -d 6 -p tcp -e 1040 -c 1 -i 15 -a 1 -x {0.0 4.0 4 ------- null}
- -t 1.732032 -s 3 -d 6 -p tcp -e 1040 -c 1 -i 15 -a 1 -x {0.0 4.0 4 ------- null}
h -t 1.732032 -s 3 -d 6 -p tcp -e 1040 -c 1 -i 15 -a 1 -x {0.0 4.0 -1 ------- null}
d -t 1.732036 -s 5 -d 6 -p tcp -e 1040 -c 1 -i 15 -a 1 -x {0.0 4.0 4 ------- null}
+ -t 1.735936 -s 3 -d 6 -p tcp -e 1040 -c 1 -i 16 -a 1 -x {0.0 4.0 5 ------- null}
- -t 1.736448 -s 3 -d 6 -p tcp -e 1040 -c 1 -i 16 -a 1 -x {0.0 4.0 5 ------- null}
h -t 1.736448 -s 3 -d 6 -p tcp -e 1040 -c 1 -i 16 -a 1 -x {0.0 4.0 -1 ------- null}
d -t 1.736452 -s 5 -d 6 -p tcp -e 1040 -c 1 -i 16 -a 1 -x {0.0 4.0 5 ------- null}
+ -t 1.739936 -s 3 -d 6 -p cbr -e 1000 -c 2 -i 18 -a 2 -x {1.0 5.0 8 ------- null}
+ -t 1.74 -s 1 -d 2 -p cbr -e 1000 -c 2 -i 19 -a 2 -x {1.0 5.0 9 ------- null}
- -t 1.74 -s 1 -d 2 -p cbr -e 1000 -c 2 -i 19 -a 2 -x {1.0 5.0 9 ------- null}
h -t 1.74 -s 1 -d 2 -p cbr -e 1000 -c 2 -i 19 -a 2 -x {1.0 5.0 -1 ------- null}
- -t 1.740864 -s 3 -d 6 -p cbr -e 1000 -c 2 -i 18 -a 2 -x {1.0 5.0 8 ------- null}
h -t 1.740864 -s 3 -d 6 -p cbr -e 1000 -c 2 -i 18 -a 2 -x {1.0 5.0 -1 ------- null}
d -t 1.740868 -s 4 -d 6 -p cbr -e 1000 -c 2 -i 18 -a 2 -x {1.0 5.0 8 ------- null}
+ -t 1.744096 -s 3 -d 6 -p tcp -e 1040 -c 1 -i 17 -a 1 -x {0.0 4.0 6 ------- null}
- -t 1.74512 -s 3 -d 6 -p tcp -e 1040 -c 1 -i 17 -a 1 -x {0.0 4.0 6 ------- null}
h -t 1.74512 -s 3 -d 6 -p tcp -e 1040 -c 1 -i 17 -a 1 -x {0.0 4.0 -1 ------- null}
d -t 1.745124 -s 5 -d 6 -p tcp -e 1040 -c 1 -i 17 -a 1 -x {0.0 4.0 6 ------- null}
r -t 1.754 -s 1 -d 2 -p cbr -e 1000 -c 2 -i 19 -a 2 -x {1.0 5.0 9 ------- null}
+ -t 1.754 -s 2 -d 3 -p cbr -e 1000 -c 2 -i 19 -a 2 -x {1.0 5.0 9 ------- null}
- -t 1.754 -s 2 -d 3 -p cbr -e 1000 -c 2 -i 19 -a 2 -x {1.0 5.0 9 ------- null}
h -t 1.754 -s 2 -d 3 -p cbr -e 1000 -c 2 -i 19 -a 2 -x {1.0 5.0 -1 ------- null}
r -t 1.76762 -s 6 -d 4 -p tcp -e 1040 -c 1 -i 14 -a 1 -x {0.0 4.0 3 ------- null}
h -t 1.76762 -s 4 -d 6 -p ack -e 40 -c 1 -i 20 -a 1 -x {4.0 0.0 3 ------- null}
r -t 1.772036 -s 6 -d 4 -p tcp -e 1040 -c 1 -i 15 -a 1 -x {0.0 4.0 4 ------- null}
h -t 1.772036 -s 4 -d 6 -p ack -e 40 -c 1 -i 21 -a 1 -x {4.0 0.0 4 ------- null}
r -t 1.776452 -s 6 -d 4 -p tcp -e 1040 -c 1 -i 16 -a 1 -x {0.0 4.0 5 ------- null}
h -t 1.776452 -s 4 -d 6 -p ack -e 40 -c 1 -i 22 -a 1 -x {4.0 0.0 5 ------- null}
r -t 1.780868 -s 6 -d 5 -p cbr -e 1000 -c 2 -i 18 -a 2 -x {1.0 5.0 8 ------- null}
r -t 1.785124 -s 6 -d 4 -p tcp -e 1040 -c 1 -i 17 -a 1 -x {0.0 4.0 6 ------- null}
h -t 1.785124 -s 4 -d 6 -p ack -e 40 -c 1 -i 23 -a 1 -x {4.0 0.0 6 ------- null}
+ -t 1.80762 -s 4 -d 6 -p ack -e 40 -c 1 -i 20 -a 1 -x {4.0 0.0 3 ------- null}
- -t 1.80762 -s 4 -d 6 -p ack -e 40 -c 1 -i 20 -a 1 -x {4.0 0.0 3 ------- null}
h -t 1.80762 -s 4 -d 6 -p ack -e 40 -c 1 -i 20 -a 1 -x {4.0 0.0 -1 ------- null}
d -t 1.807624 -s 5 -d 6 -p ack -e 40 -c 1 -i 20 -a 1 -x {4.0 0.0 3 ------- null}
+ -t 1.812036 -s 4 -d 6 -p ack -e 40 -c 1 -i 21 -a 1 -x {4.0 0.0 4 ------- null}
- -t 1.812036 -s 4 -d 6 -p ack -e 40 -c 1 -i 21 -a 1 -x {4.0 0.0 4 ------- null}
h -t 1.812036 -s 4 -d 6 -p ack -e 40 -c 1 -i 21 -a 1 -x {4.0 0.0 -1 ------- null}
d -t 1.81204 -s 5 -d 6 -p ack -e 40 -c 1 -i 21 -a 1 -x {4.0 0.0 4 ------- null}
+ -t 1.816452 -s 4 -d 6 -p ack -e 40 -c 1 -i 22 -a 1 -x {4.0 0.0 5 ------- null}
- -t 1.816452 -s 4 -d 6 -p ack -e 40 -c 1 -i 22 -a 1 -x {4.0 0.0 5 ------- null}
h -t 1.816452 -s 4 -d 6 -p ack -e 40 -c 1 -i 22 -a 1 -x {4.0 0.0 -1 ------- null}
d -t 1.816456 -s 5 -d 6 -p ack -e 40 -c 1 -i 22 -a 1 -x {4.0 0.0 5 ------- null}
+ -t 1.825124 -s 4 -d 6 -p ack -e 40 -c 1 -i 23 -a 1 -x {4.0 0.0 6 ------- null}
- -t 1.825124 -s 4 -d 6 -p ack -e 40 -c 1 -i 23 -a 1 -x {4.0 0.0 6 ------- null}
h -t 1.825124 -s 4 -d 6 -p ack -e 40 -c 1 -i 23 -a 1 -x {4.0 0.0 -1 ------- null}
d -t 1.825128 -s 5 -d 6 -p ack -e 40 -c 1 -i 23 -a 1 -x {4.0 0.0 6 ------- null}
r -t 1.847624 -s 6 -d 3 -p ack -e 40 -c 1 -i 20 -a 1 -x {4.0 0.0 3 ------- null}
+ -t 1.847624 -s 3 -d 2 -p ack -e 40 -c 1 -i 20 -a 1 -x {4.0 0.0 3 ------- null}
- -t 1.847624 -s 3 -d 2 -p ack -e 40 -c 1 -i 20 -a 1 -x {4.0 0.0 3 ------- null}
h -t 1.847624 -s 3 -d 2 -p ack -e 40 -c 1 -i 20 -a 1 -x {4.0 0.0 -1 ------- null}
r -t 1.85204 -s 6 -d 3 -p ack -e 40 -c 1 -i 21 -a 1 -x {4.0 0.0 4 ------- null}
+ -t 1.85204 -s 3 -d 2 -p ack -e 40 -c 1 -i 21 -a 1 -x {4.0 0.0 4 ------- null}
- -t 1.85204 -s 3 -d 2 -p ack -e 40 -c 1 -i 21 -a 1 -x {4.0 0.0 4 ------- null}
h -t 1.85204 -s 3 -d 2 -p ack -e 40 -c 1 -i 21 -a 1 -x {4.0 0.0 -1 ------- null}
r -t 1.856456 -s 6 -d 3 -p ack -e 40 -c 1 -i 22 -a 1 -x {4.0 0.0 5 ------- null}
+ -t 1.856456 -s 3 -d 2 -p ack -e 40 -c 1 -i 22 -a 1 -x {4.0 0.0 5 ------- null}
- -t 1.856456 -s 3 -d 2 -p ack -e 40 -c 1 -i 22 -a 1 -x {4.0 0.0 5 ------- null}
h -t 1.856456 -s 3 -d 2 -p ack -e 40 -c 1 -i 22 -a 1 -x {4.0 0.0 -1 ------- null}
r -t 1.858 -s 2 -d 3 -p cbr -e 1000 -c 2 -i 19 -a 2 -x {1.0 5.0 9 ------- null}
h -t 1.858 -s 3 -d 6 -p cbr -e 1000 -c 2 -i 19 -a 2 -x {1.0 5.0 9 ------- null}
r -t 1.865128 -s 6 -d 3 -p ack -e 40 -c 1 -i 23 -a 1 -x {4.0 0.0 6 ------- null}
+ -t 1.865128 -s 3 -d 2 -p ack -e 40 -c 1 -i 23 -a 1 -x {4.0 0.0 6 ------- null}
- -t 1.865128 -s 3 -d 2 -p ack -e 40 -c 1 -i 23 -a 1 -x {4.0 0.0 6 ------- null}
h -t 1.865128 -s 3 -d 2 -p ack -e 40 -c 1 -i 23 -a 1 -x {4.0 0.0 -1 ------- null}
+ -t 1.898 -s 3 -d 6 -p cbr -e 1000 -c 2 -i 19 -a 2 -x {1.0 5.0 9 ------- null}
- -t 1.898 -s 3 -d 6 -p cbr -e 1000 -c 2 -i 19 -a 2 -x {1.0 5.0 9 ------- null}
h -t 1.898 -s 3 -d 6 -p cbr -e 1000 -c 2 -i 19 -a 2 -x {1.0 5.0 -1 ------- null}
d -t 1.898004 -s 4 -d 6 -p cbr -e 1000 -c 2 -i 19 -a 2 -x {1.0 5.0 9 ------- null}
+ -t 1.9 -s 1 -d 2 -p cbr -e 1000 -c 2 -i 24 -a 2 -x {1.0 5.0 10 ------- null}
- -t 1.9 -s 1 -d 2 -p cbr -e 1000 -c 2 -i 24 -a 2 -x {1.0 5.0 10 ------- null}
h -t 1.9 -s 1 -d 2 -p cbr -e 1000 -c 2 -i 24 -a 2 -x {1.0 5.0 -1 ------- null}
r -t 1.914 -s 1 -d 2 -p cbr -e 1000 -c 2 -i 24 -a 2 -x {1.0 5.0 10 ------- null}
+ -t 1.914 -s 2 -d 3 -p cbr -e 1000 -c 2 -i 24 -a 2 -x {1.0 5.0 10 ------- null}
- -t 1.914 -s 2 -d 3 -p cbr -e 1000 -c 2 -i 24 -a 2 -x {1.0 5.0 10 ------- null}
h -t 1.914 -s 2 -d 3 -p cbr -e 1000 -c 2 -i 24 -a 2 -x {1.0 5.0 -1 ------- null}
r -t 1.938004 -s 6 -d 5 -p cbr -e 1000 -c 2 -i 19 -a 2 -x {1.0 5.0 9 ------- null}
r -t 1.947784 -s 3 -d 2 -p ack -e 40 -c 1 -i 20 -a 1 -x {4.0 0.0 3 ------- null}
+ -t 1.947784 -s 2 -d 0 -p ack -e 40 -c 1 -i 20 -a 1 -x {4.0 0.0 3 ------- null}
- -t 1.947784 -s 2 -d 0 -p ack -e 40 -c 1 -i 20 -a 1 -x {4.0 0.0 3 ------- null}
h -t 1.947784 -s 2 -d 0 -p ack -e 40 -c 1 -i 20 -a 1 -x {4.0 0.0 -1 ------- null}
r -t 1.9522 -s 3 -d 2 -p ack -e 40 -c 1 -i 21 -a 1 -x {4.0 0.0 4 ------- null}
+ -t 1.9522 -s 2 -d 0 -p ack -e 40 -c 1 -i 21 -a 1 -x {4.0 0.0 4 ------- null}
- -t 1.9522 -s 2 -d 0 -p ack -e 40 -c 1 -i 21 -a 1 -x {4.0 0.0 4 ------- null}
h -t 1.9522 -s 2 -d 0 -p ack -e 40 -c 1 -i 21 -a 1 -x {4.0 0.0 -1 ------- null}
r -t 1.956616 -s 3 -d 2 -p ack -e 40 -c 1 -i 22 -a 1 -x {4.0 0.0 5 ------- null}
+ -t 1.956616 -s 2 -d 0 -p ack -e 40 -c 1 -i 22 -a 1 -x {4.0 0.0 5 ------- null}
- -t 1.956616 -s 2 -d 0 -p ack -e 40 -c 1 -i 22 -a 1 -x {4.0 0.0 5 ------- null}
h -t 1.956616 -s 2 -d 0 -p ack -e 40 -c 1 -i 22 -a 1 -x {4.0 0.0 -1 ------- null}
r -t 1.957944 -s 2 -d 0 -p ack -e 40 -c 1 -i 20 -a 1 -x {4.0 0.0 3 ------- null}
+ -t 1.957944 -s 0 -d 2 -p tcp -e 1040 -c 1 -i 25 -a 1 -x {0.0 4.0 7 ------- null}
- -t 1.957944 -s 0 -d 2 -p tcp -e 1040 -c 1 -i 25 -a 1 -x {0.0 4.0 7 ------- null}
h -t 1.957944 -s 0 -d 2 -p tcp -e 1040 -c 1 -i 25 -a 1 -x {0.0 4.0 -1 ------- null}
+ -t 1.957944 -s 0 -d 2 -p tcp -e 1040 -c 1 -i 26 -a 1 -x {0.0 4.0 8 ------- null}
- -t 1.962104 -s 0 -d 2 -p tcp -e 1040 -c 1 -i 26 -a 1 -x {0.0 4.0 8 ------- null}
h -t 1.962104 -s 0 -d 2 -p tcp -e 1040 -c 1 -i 26 -a 1 -x {0.0 4.0 -1 ------- null}
r -t 1.96236 -s 2 -d 0 -p ack -e 40 -c 1 -i 21 -a 1 -x {4.0 0.0 4 ------- null}
+ -t 1.96236 -s 0 -d 2 -p tcp -e 1040 -c 1 -i 27 -a 1 -x {0.0 4.0 9 ------- null}
+ -t 1.96236 -s 0 -d 2 -p tcp -e 1040 -c 1 -i 28 -a 1 -x {0.0 4.0 10 ------- null}
r -t 1.965288 -s 3 -d 2 -p ack -e 40 -c 1 -i 23 -a 1 -x {4.0 0.0 6 ------- null}
+ -t 1.965288 -s 2 -d 0 -p ack -e 40 -c 1 -i 23 -a 1 -x {4.0 0.0 6 ------- null}
- -t 1.965288 -s 2 -d 0 -p ack -e 40 -c 1 -i 23 -a 1 -x {4.0 0.0 6 ------- null}
h -t 1.965288 -s 2 -d 0 -p ack -e 40 -c 1 -i 23 -a 1 -x {4.0 0.0 -1 ------- null}
- -t 1.966264 -s 0 -d 2 -p tcp -e 1040 -c 1 -i 27 -a 1 -x {0.0 4.0 9 ------- null}
h -t 1.966264 -s 0 -d 2 -p tcp -e 1040 -c 1 -i 27 -a 1 -x {0.0 4.0 -1 ------- null}
r -t 1.966776 -s 2 -d 0 -p ack -e 40 -c 1 -i 22 -a 1 -x {4.0 0.0 5 ------- null}
+ -t 1.966776 -s 0 -d 2 -p tcp -e 1040 -c 1 -i 29 -a 1 -x {0.0 4.0 11 ------- null}
+ -t 1.966776 -s 0 -d 2 -p tcp -e 1040 -c 1 -i 30 -a 1 -x {0.0 4.0 12 ------- null}
- -t 1.970424 -s 0 -d 2 -p tcp -e 1040 -c 1 -i 28 -a 1 -x {0.0 4.0 10 ------- null}
h -t 1.970424 -s 0 -d 2 -p tcp -e 1040 -c 1 -i 28 -a 1 -x {0.0 4.0 -1 ------- null}
r -t 1.972104 -s 0 -d 2 -p tcp -e 1040 -c 1 -i 25 -a 1 -x {0.0 4.0 7 ------- null}
+ -t 1.972104 -s 2 -d 3 -p tcp -e 1040 -c 1 -i 25 -a 1 -x {0.0 4.0 7 ------- null}
- -t 1.972104 -s 2 -d 3 -p tcp -e 1040 -c 1 -i 25 -a 1 -x {0.0 4.0 7 ------- null}
h -t 1.972104 -s 2 -d 3 -p tcp -e 1040 -c 1 -i 25 -a 1 -x {0.0 4.0 -1 ------- null}