+ 0.3 1 2 cbr 1000 ------- 2 1.0 5.0 0 0
- 0.3 1 2 cbr 1000 ------- 2 1.0 5.0 0 0
r 0.314 1 2 cbr 1000 ------- 2 1.0 5.0 0 0
+ 0.314 2 3 cbr 1000 ------- 2 1.0 5.0 0 0
- 0.314 2 3 cbr 1000 ------- 2 1.0 5.0 0 0
r 0.418 2 3 cbr 1000 ------- 2 1.0 5.0 0 0
h 0.418 3 6 cbr 1000 ------- 2 1.0 5.0 0 0
+ 0.458 3 6 cbr 1000 ------- 2 1.0 5.0 0 0
- 0.458 3 6 cbr 1000 ------- 2 1.0 5.0 0 0
d 0.458004 4 6 cbr 1000 ------- 2 1.0 5.0 0 0
+ 0.46 1 2 cbr 1000 ------- 2 1.0 5.0 1 1
- 0.46 1 2 cbr 1000 ------- 2 1.0 5.0 1 1
r 0.474 1 2 cbr 1000 ------- 2 1.0 5.0 1 1
+ 0.474 2 3 cbr 1000 ------- 2 1.0 5.0 1 1
- 0.474 2 3 cbr 1000 ------- 2 1.0 5.0 1 1
r 0.498004 6 5 cbr 1000 ------- 2 1.0 5.0 0 0
r 0.578 2 3 cbr 1000 ------- 2 1.0 5.0 1 1
h 0.578 3 6 cbr 1000 ------- 2 1.0 5.0 1 1
+ 0.618 3 6 cbr 1000 ------- 2 1.0 5.0 1 1
- 0.618 3 6 cbr 1000 ------- 2 1.0 5.0 1 1
d 0.618004 4 6 cbr 1000 ------- 2 1.0 5.0 1 1
+ 0.62 1 2 cbr 1000 ------- 2 1.0 5.0 2 2
- 0.62 1 2 cbr 1000 ------- 2 1.0 5.0 2 2
r 0.634 1 2 cbr 1000 ------- 2 1.0 5.0 2 2
+ 0.634 2 3 cbr 1000 ------- 2 1.0 5.0 2 2
- 0.634 2 3 cbr 1000 ------- 2 1.0 5.0 2 2
r 0.658004 6 5 cbr 1000 ------- 2 1.0 5.0 1 1
r 0.738 2 3 cbr 1000 ------- 2 1.0 5.0 2 2
h 0.738 3 6 cbr 1000 ------- 2 1.0 5.0 2 2
+ 0.778 3 6 cbr 1000 ------- 2 1.0 5.0 2 2
- 0.778 3 6 cbr 1000 ------- 2 1.0 5.0 2 2
d 0.778004 4 6 cbr 1000 ------- 2 1.0 5.0 2 2
+ 0.78 1 2 cbr 1000 ------- 2 1.0 5.0 3 3
- 0.78 1 2 cbr 1000 ------- 2 1.0 5.0 3 3
r 0.794 1 2 cbr 1000 ------- 2 1.0 5.0 3 3
+ 0.794 2 3 cbr 1000 ------- 2 1.0 5.0 3 3
- 0.794 2 3 cbr 1000 ------- 2 1.0 5.0 3 3
+ 0.8 0 2 tcp 40 ------- 1 0.0 4.0 0 4
- 0.8 0 2 tcp 40 ------- 1 0.0 4.0 0 4
r 0.81016 0 2 tcp 40 ------- 1 0.0 4.0 0 4
+ 0.81016 2 3 tcp 40 ------- 1 0.0 4.0 0 4
- 0.81016 2 3 tcp 40 ------- 1 0.0 4.0 0 4
r 0.818004 6 5 cbr 1000 ------- 2 1.0 5.0 2 2
r 0.898 2 3 cbr 1000 ------- 2 1.0 5.0 3 3
h 0.898 3 6 cbr 1000 ------- 2 1.0 5.0 3 3
r 0.91032 2 3 tcp 40 ------- 1 0.0 4.0 0 4
h 0.91032 3 6 tcp 40 ------- 1 0.0 4.0 0 4
+ 0.938 3 6 cbr 1000 ------- 2 1.0 5.0 3 3
- 0.938 3 6 cbr 1000 ------- 2 1.0 5.0 3 3
d 0.938004 4 6 cbr 1000 ------- 2 1.0 5.0 3 3
+ 0.94 1 2 cbr 1000 ------- 2 1.0 5.0 4 5
- 0.94 1 2 cbr 1000 ------- 2 1.0 5.0 4 5
+ 0.95032 3 6 tcp 40 ------- 1 0.0 4.0 0 4
- 0.95032 3 6 tcp 40 ------- 1 0.0 4.0 0 4
d 0.950324 5 6 tcp 40 ------- 1 0.0 4.0 0 4
r 0.954 1 2 cbr 1000 ------- 2 1.0 5.0 4 5
+ 0.954 2 3 cbr 1000 ------- 2 1.0 5.0 4 5
- 0.954 2 3 cbr 1000 ------- 2 1.0 5.0 4 5
r 0.978004 6 5 cbr 1000 ------- 2 1.0 5.0 3 3
r 0.990324 6 4 tcp 40 ------- 1 0.0 4.0 0 4
h 0.990324 4 6 ack 40 ------- 1 4.0 0.0 0 6
+ 1.030324 4 6 ack 40 ------- 1 4.0 0.0 0 6
- 1.030324 4 6 ack 40 ------- 1 4.0 0.0 0 6
d 1.030328 5 6 ack 40 ------- 1 4.0 0.0 0 6
r 1.058 2 3 cbr 1000 ------- 2 1.0 5.0 4 5
h 1.058 3 6 cbr 1000 ------- 2 1.0 5.0 4 5
r 1.070328 6 3 ack 40 ------- 1 4.0 0.0 0 6
+ 1.070328 3 2 ack 40 ------- 1 4.0 0.0 0 6
- 1.070328 3 2 ack 40 ------- 1 4.0 0.0 0 6
+ 1.098 3 6 cbr 1000 ------- 2 1.0 5.0 4 5
- 1.098 3 6 cbr 1000 ------- 2 1.0 5.0 4 5
d 1.098004 4 6 cbr 1000 ------- 2 1.0 5.0 4 5
+ 1.1 1 2 cbr 1000 ------- 2 1.0 5.0 5 7
- 1.1 1 2 cbr 1000 ------- 2 1.0 5.0 5 7
r 1.114 1 2 cbr 1000 ------- 2 1.0 5.0 5 7
+ 1.114 2 3 cbr 1000 ------- 2 1.0 5.0 5 7
- 1.114 2 3 cbr 1000 ------- 2 1.0 5.0 5 7
r 1.138004 6 5 cbr 1000 ------- 2 1.0 5.0 4 5
r 1.170488 3 2 ack 40 ------- 1 4.0 0.0 0 6
+ 1.170488 2 0 ack 40 ------- 1 4.0 0.0 0 6
- 1.170488 2 0 ack 40 ------- 1 4.0 0.0 0 6
r 1.180648 2 0 ack 40 ------- 1 4.0 0.0 0 6
+ 1.180648 0 2 tcp 1040 ------- 1 0.0 4.0 1 8
- 1.180648 0 2 tcp 1040 ------- 1 0.0 4.0 1 8
+ 1.180648 0 2 tcp 1040 ------- 1 0.0 4.0 2 9
- 1.184808 0 2 tcp 1040 ------- 1 0.0 4.0 2 9
r 1.194808 0 2 tcp 1040 ------- 1 0.0 4.0 1 8
+ 1.194808 2 3 tcp 1040 ------- 1 0.0 4.0 1 8
- 1.194808 2 3 tcp 1040 ------- 1 0.0 4.0 1 8
r 1.198968 0 2 tcp 1040 ------- 1 0.0 4.0 2 9
+ 1.198968 2 3 tcp 1040 ------- 1 0.0 4.0 2 9
- 1.198968 2 3 tcp 1040 ------- 1 0.0 4.0 2 9
r 1.218 2 3 cbr 1000 ------- 2 1.0 5.0 5 7
h 1.218 3 6 cbr 1000 ------- 2 1.0 5.0 5 7
+ 1.258 3 6 cbr 1000 ------- 2 1.0 5.0 5 7
- 1.258 3 6 cbr 1000 ------- 2 1.0 5.0 5 7
d 1.258004 4 6 cbr 1000 ------- 2 1.0 5.0 5 7
+ 1.26 1 2 cbr 1000 ------- 2 1.0 5.0 6 10
- 1.26 1 2 cbr 1000 ------- 2 1.0 5.0 6 10
r 1.274 1 2 cbr 1000 ------- 2 1.0 5.0 6 10
+ 1.274 2 3 cbr 1000 ------- 2 1.0 5.0 6 10
- 1.274 2 3 cbr 1000 ------- 2 1.0 5.0 6 10
r 1.298004 6 5 cbr 1000 ------- 2 1.0 5.0 5 7
r 1.298968 2 3 tcp 1040 ------- 1 0.0 4.0 1 8
h 1.298968 3 6 tcp 1040 ------- 1 0.0 4.0 1 8
r 1.303128 2 3 tcp 1040 ------- 1 0.0 4.0 2 9
h 1.303128 3 6 tcp 1040 ------- 1 0.0 4.0 2 9
+ 1.338968 3 6 tcp 1040 ------- 1 0.0 4.0 1 8
- 1.338968 3 6 tcp 1040 ------- 1 0.0 4.0 1 8
d 1.338972 5 6 tcp 1040 ------- 1 0.0 4.0 1 8
+ 1.343128 3 6 tcp 1040 ------- 1 0.0 4.0 2 9
- 1.343384 3 6 tcp 1040 ------- 1 0.0 4.0 2 9
d 1.343388 5 6 tcp 1040 ------- 1 0.0 4.0 2 9
r 1.378 2 3 cbr 1000 ------- 2 1.0 5.0 6 10
h 1.378 3 6 cbr 1000 ------- 2 1.0 5.0 6 10
r 1.378972 6 4 tcp 1040 ------- 1 0.0 4.0 1 8
h 1.378972 4 6 ack 40 ------- 1 4.0 0.0 1 11
r 1.383388 6 4 tcp 1040 ------- 1 0.0 4.0 2 9
h 1.383388 4 6 ack 40 ------- 1 4.0 0.0 2 12
+ 1.418 3 6 cbr 1000 ------- 2 1.0 5.0 6 10
- 1.418 3 6 cbr 1000 ------- 2 1.0 5.0 6 10
d 1.418004 4 6 cbr 1000 ------- 2 1.0 5.0 6 10
+ 1.418972 4 6 ack 40 ------- 1 4.0 0.0 1 11
- 1.418972 4 6 ack 40 ------- 1 4.0 0.0 1 11
d 1.418976 5 6 ack 40 ------- 1 4.0 0.0 1 11
+ 1.42 1 2 cbr 1000 ------- 2 1.0 5.0 7 13
- 1.42 1 2 cbr 1000 ------- 2 1.0 5.0 7 13
+ 1.423388 4 6 ack 40 ------- 1 4.0 0.0 2 12
- 1.423388 4 6 ack 40 ------- 1 4.0 0.0 2 12
d 1.423392 5 6 ack 40 ------- 1 4.0 0.0 2 12
r 1.434 1 2 cbr 1000 ------- 2 1.0 5.0 7 13
+ 1.434 2 3 cbr 1000 ------- 2 1.0 5.0 7 13
- 1.434 2 3 cbr 1000 ------- 2 1.0 5.0 7 13
r 1.458004 6 5 cbr 1000 ------- 2 1.0 5.0 6 10
r 1.458976 6 3 ack 40 ------- 1 4.0 0.0 1 11
+ 1.458976 3 2 ack 40 ------- 1 4.0 0.0 1 11
- 1.458976 3 2 ack 40 ------- 1 4.0 0.0 1 11
r 1.463392 6 3 ack 40 ------- 1 4.0 0.0 2 12
+ 1.463392 3 2 ack 40 ------- 1 4.0 0.0 2 12
- 1.463392 3 2 ack 40 ------- 1 4.0 0.0 2 12
r 1.538 2 3 cbr 1000 ------- 2 1.0 5.0 7 13
h 1.538 3 6 cbr 1000 ------- 2 1.0 5.0 7 13
r 1.559136 3 2 ack 40 ------- 1 4.0 0.0 1 11
+ 1.559136 2 0 ack 40 ------- 1 4.0 0.0 1 11
- 1.559136 2 0 ack 40 ------- 1 4.0 0.0 1 11
r 1.563552 3 2 ack 40 ------- 1 4.0 0.0 2 12
+ 1.563552 2 0 ack 40 ------- 1 4.0 0.0 2 12
- 1.563552 2 0 ack 40 ------- 1 4.0 0.0 2 12
r 1.569296 2 0 ack 40 ------- 1 4.0 0.0 1 11
+ 1.569296 0 2 tcp 1040 ------- 1 0.0 4.0 3 14
- 1.569296 0 2 tcp 1040 ------- 1 0.0 4.0 3 14
+ 1.569296 0 2 tcp 1040 ------- 1 0.0 4.0 4 15
- 1.573456 0 2 tcp 1040 ------- 1 0.0 4.0 4 15
r 1.573712 2 0 ack 40 ------- 1 4.0 0.0 2 12
+ 1.573712 0 2 tcp 1040 ------- 1 0.0 4.0 5 16
+ 1.573712 0 2 tcp 1040 ------- 1 0.0 4.0 6 17
- 1.577616 0 2 tcp 1040 ------- 1 0.0 4.0 5 16
+ 1.578 3 6 cbr 1000 ------- 2 1.0 5.0 7 13
- 1.578 3 6 cbr 1000 ------- 2 1.0 5.0 7 13
d 1.578004 4 6 cbr 1000 ------- 2 1.0 5.0 7 13
+ 1.58 1 2 cbr 1000 ------- 2 1.0 5.0 8 18
- 1.58 1 2 cbr 1000 ------- 2 1.0 5.0 8 18
- 1.581776 0 2 tcp 1040 ------- 1 0.0 4.0 6 17
r 1.583456 0 2 tcp 1040 ------- 1 0.0 4.0 3 14
+ 1.583456 2 3 tcp 1040 ------- 1 0.0 4.0 3 14
- 1.583456 2 3 tcp 1040 ------- 1 0.0 4.0 3 14
r 1.587616 0 2 tcp 1040 ------- 1 0.0 4.0 4 15
+ 1.587616 2 3 tcp 1040 ------- 1 0.0 4.0 4 15
- 1.587616 2 3 tcp 1040 ------- 1 0.0 4.0 4 15
r 1.591776 0 2 tcp 1040 ------- 1 0.0 4.0 5 16
+ 1.591776 2 3 tcp 1040 ------- 1 0.0 4.0 5 16
- 1.591776 2 3 tcp 1040 ------- 1 0.0 4.0 5 16
r 1.594 1 2 cbr 1000 ------- 2 1.0 5.0 8 18
+ 1.594 2 3 cbr 1000 ------- 2 1.0 5.0 8 18
r 1.595936 0 2 tcp 1040 ------- 1 0.0 4.0 6 17
+ 1.595936 2 3 tcp 1040 ------- 1 0.0 4.0 6 17
- 1.595936 2 3 cbr 1000 ------- 2 1.0 5.0 8 18
- 1.599936 2 3 tcp 1040 ------- 1 0.0 4.0 6 17
r 1.618004 6 5 cbr 1000 ------- 2 1.0 5.0 7 13
r 1.687616 2 3 tcp 1040 ------- 1 0.0 4.0 3 14
h 1.687616 3 6 tcp 1040 ------- 1 0.0 4.0 3 14
r 1.691776 2 3 tcp 1040 ------- 1 0.0 4.0 4 15
h 1.691776 3 6 tcp 1040 ------- 1 0.0 4.0 4 15
r 1.695936 2 3 tcp 1040 ------- 1 0.0 4.0 5 16
h 1.695936 3 6 tcp 1040 ------- 1 0.0 4.0 5 16
r 1.699936 2 3 cbr 1000 ------- 2 1.0 5.0 8 18
h 1.699936 3 6 cbr 1000 ------- 2 1.0 5.0 8 18
r 1.704096 2 3 tcp 1040 ------- 1 0.0 4.0 6 17
h 1.704096 3 6 tcp 1040 ------- 1 0.0 4.0 6 17
+ 1.727616 3 6 tcp 1040 ------- 1 0.0 4.0 3 14
- 1.727616 3 6 tcp 1040 ------- 1 0.0 4.0 3 14
d 1.72762 5 6 tcp 1040 ------- 1 0.0 4.0 3 14
+ 1.731776 3 6 tcp 1040 ------- 1 0.0 4.0 4 15
- 1.732032 3 6 tcp 1040 ------- 1 0.0 4.0 4 15
d 1.732036 5 6 tcp 1040 ------- 1 0.0 4.0 4 15
+ 1.735936 3 6 tcp 1040 ------- 1 0.0 4.0 5 16
- 1.736448 3 6 tcp 1040 ------- 1 0.0 4.0 5 16
d 1.736452 5 6 tcp 1040 ------- 1 0.0 4.0 5 16
+ 1.739936 3 6 cbr 1000 ------- 2 1.0 5.0 8 18
+ 1.74 1 2 cbr 1000 ------- 2 1.0 5.0 9 19
- 1.74 1 2 cbr 1000 ------- 2 1.0 5.0 9 19
- 1.740864 3 6 cbr 1000 ------- 2 1.0 5.0 8 18
d 1.740868 4 6 cbr 1000 ------- 2 1.0 5.0 8 18
+ 1.744096 3 6 tcp 1040 ------- 1 0.0 4.0 6 17
- 1.74512 3 6 tcp 1040 ------- 1 0.0 4.0 6 17
d 1.745124 5 6 tcp 1040 ------- 1 0.0 4.0 6 17
r 1.754 1 2 cbr 1000 ------- 2 1.0 5.0 9 19
+ 1.754 2 3 cbr 1000 ------- 2 1.0 5.0 9 19
- 1.754 2 3 cbr 1000 ------- 2 1.0 5.0 9 19
r 1.76762 6 4 tcp 1040 ------- 1 0.0 4.0 3 14
h 1.76762 4 6 ack 40 ------- 1 4.0 0.0 3 20
r 1.772036 6 4 tcp 1040 ------- 1 0.0 4.0 4 15
h 1.772036 4 6 ack 40 ------- 1 4.0 0.0 4 21
r 1.776452 6 4 tcp 1040 ------- 1 0.0 4.0 5 16
h 1.776452 4 6 ack 40 ------- 1 4.0 0.0 5 22
r 1.780868 6 5 cbr 1000 ------- 2 1.0 5.0 8 18
r 1.785124 6 4 tcp 1040 ------- 1 0.0 4.0 6 17
h 1.785124 4 6 ack 40 ------- 1 4.0 0.0 6 23
+ 1.80762 4 6 ack 40 ------- 1 4.0 0.0 3 20
- 1.80762 4 6 ack 40 ------- 1 4.0 0.0 3 20
d 1.807624 5 6 ack 40 ------- 1 4.0 0.0 3 20
+ 1.812036 4 6 ack 40 ------- 1 4.0 0.0 4 21
- 1.812036 4 6 ack 40 ------- 1 4.0 0.0 4 21
d 1.81204 5 6 ack 40 ------- 1 4.0 0.0 4 21
+ 1.816452 4 6 ack 40 ------- 1 4.0 0.0 5 22
- 1.816452 4 6 ack 40 ------- 1 4.0 0.0 5 22
d 1.816456 5 6 ack 40 ------- 1 4.0 0.0 5 22
+ 1.825124 4 6 ack 40 ------- 1 4.0 0.0 6 23
- 1.825124 4 6 ack 40 ------- 1 4.0 0.0 6 23
d 1.825128 5 6 ack 40 ------- 1 4.0 0.0 6 23
r 1.847624 6 3 ack 40 ------- 1 4.0 0.0 3 20
+ 1.847624 3 2 ack 40 ------- 1 4.0 0.0 3 20
- 1.847624 3 2 ack 40 ------- 1 4.0 0.0 3 20
r 1.85204 6 3 ack 40 ------- 1 4.0 0.0 4 21
+ 1.85204 3 2 ack 40 ------- 1 4.0 0.0 4 21
- 1.85204 3 2 ack 40 ------- 1 4.0 0.0 4 21
r 1.856456 6 3 ack 40 ------- 1 4.0 0.0 5 22
+ 1.856456 3 2 ack 40 ------- 1 4.0 0.0 5 22
- 1.856456 3 2 ack 40 ------- 1 4.0 0.0 5 22
r 1.858 2 3 cbr 1000 ------- 2 1.0 5.0 9 19
h 1.858 3 6 cbr 1000 ------- 2 1.0 5.0 9 19
r 1.865128 6 3 ack 40 ------- 1 4.0 0.0 6 23
+ 1.865128 3 2 ack 40 ------- 1 4.0 0.0 6 23
- 1.865128 3 2 ack 40 ------- 1 4.0 0.0 6 23
+ 1.898 3 6 cbr 1000 ------- 2 1.0 5.0 9 19
- 1.898 3 6 cbr 1000 ------- 2 1.0 5.0 9 19
d 1.898004 4 6 cbr 1000 ------- 2 1.0 5.0 9 19
+ 1.9 1 2 cbr 1000 ------- 2 1.0 5.0 10 24
- 1.9 1 2 cbr 1000 ------- 2 1.0 5.0 10 24
r 1.914 1 2 cbr 1000 ------- 2 1.0 5.0 10 24
+ 1.914 2 3 cbr 1000 ------- 2 1.0 5.0 10 24
- 1.914 2 3 cbr 1000 ------- 2 1.0 5.0 10 24
r 1.938004 6 5 cbr 1000 ------- 2 1.0 5.0 9 19
r 1.947784 3 2 ack 40 ------- 1 4.0 0.0 3 20
+ 1.947784 2 0 ack 40 ------- 1 4.0 0.0 3 20
- 1.947784 2 0 ack 40 ------- 1 4.0 0.0 3 20
r 1.9522 3 2 ack 40 ------- 1 4.0 0.0 4 21
+ 1.9522 2 0 ack 40 ------- 1 4.0 0.0 4 21
- 1.9522 2 0 ack 40 ------- 1 4.0 0.0 4 21
r 1.956616 3 2 ack 40 ------- 1 4.0 0.0 5 22
+ 1.956616 2 0 ack 40 ------- 1 4.0 0.0 5 22
- 1.956616 2 0 ack 40 ------- 1 4.0 0.0 5 22
r 1.957944 2 0 ack 40 ------- 1 4.0 0.0 3 20
+ 1.957944 0 2 tcp 1040 ------- 1 0.0 4.0 7 25
- 1.957944 0 2 tcp 1040 ------- 1 0.0 4.0 7 25
+ 1.957944 0 2 tcp 1040 ------- 1 0.0 4.0 8 26
- 1.962104 0 2 tcp 1040 ------- 1 0.0 4.0 8 26
r 1.96236 2 0 ack 40 ------- 1 4.0 0.0 4 21
+ 1.96236 0 2 tcp 1040 ------- 1 0.0 4.0 9 27
+ 1.96236 0 2 tcp 1040 ------- 1 0.0 4.0 10 28
r 1.965288 3 2 ack 40 ------- 1 4.0 0.0 6 23
+ 1.965288 2 0 ack 40 ------- 1 4.0 0.0 6 23
- 1.965288 2 0 ack 40 ------- 1 4.0 0.0 6 23
- 1.966264 0 2 tcp 1040 ------- 1 0.0 4.0 9 27
r 1.966776 2 0 ack 40 ------- 1 4.0 0.0 5 22
+ 1.966776 0 2 tcp 1040 ------- 1 0.0 4.0 11 29
+ 1.966776 0 2 tcp 1040 ------- 1 0.0 4.0 12 30
- 1.970424 0 2 tcp 1040 ------- 1 0.0 4.0 10 28
r 1.972104 0 2 tcp 1040 ------- 1 0.0 4.0 7 25
+ 1.972104 2 3 tcp 1040 ------- 1 0.0 4.0 7 25
- 1.972104 2 3 tcp 1040 ------- 1 0.0 4.0 7 25
- 1.974584 0 2 tcp 1040 ------- 1 0.0 4.0 11 29
r 1.975448 2 0 ack 40 ------- 1 4.0 0.0 6 23
+ 1.975448 0 2 tcp 1040 ------- 1 0.0 4.0 13 31
+ 1.975448 0 2 tcp 1040 ------- 1 0.0 4.0 14 32
r 1.976264 0 2 tcp 1040 ------- 1 0.0 4.0 8 26
+ 1.976264 2 3 tcp 1040 ------- 1 0.0 4.0 8 26
- 1.976264 2 3 tcp 1040 ------- 1 0.0 4.0 8 26
- 1.978744 0 2 tcp 1040 ------- 1 0.0 4.0 12 30
r 1.980424 0 2 tcp 1040 ------- 1 0.0 4.0 9 27
+ 1.980424 2 3 tcp 1040 ------- 1 0.0 4.0 9 27
- 1.980424 2 3 tcp 1040 ------- 1 0.0 4.0 9 27
- 1.982904 0 2 tcp 1040 ------- 1 0.0 4.0 13 31
r 1.984584 0 2 tcp 1040 ------- 1 0.0 4.0 10 28
+ 1.984584 2 3 tcp 1040 ------- 1 0.0 4.0 10 28
- 1.984584 2 3 tcp 1040 ------- 1 0.0 4.0 10 28
- 1.987064 0 2 tcp 1040 ------- 1 0.0 4.0 14 32
r 1.988744 0 2 tcp 1040 ------- 1 0.0 4.0 11 29
+ 1.988744 2 3 tcp 1040 ------- 1 0.0 4.0 11 29
- 1.988744 2 3 tcp 1040 ------- 1 0.0 4.0 11 29
r 1.992904 0 2 tcp 1040 ------- 1 0.0 4.0 12 30
+ 1.992904 2 3 tcp 1040 ------- 1 0.0 4.0 12 30
- 1.992904 2 3 tcp 1040 ------- 1 0.0 4.0 12 30
r 1.997064 0 2 tcp 1040 ------- 1 0.0 4.0 13 31
+ 1.997064 2 3 tcp 1040 ------- 1 0.0 4.0 13 31
- 1.997064 2 3 tcp 1040 ------- 1 0.0 4.0 13 31
r 2.001224 0 2 tcp 1040 ------- 1 0.0 4.0 14 32
+ 2.001224 2 3 tcp 1040 ------- 1 0.0 4.0 14 32
- 2.001224 2 3 tcp 1040 ------- 1 0.0 4.0 14 32
r 2.018 2 3 cbr 1000 ------- 2 1.0 5.0 10 24
h 2.018 3 6 cbr 1000 ------- 2 1.0 5.0 10 24
+ 2.058 3 6 cbr 1000 ------- 2 1.0 5.0 10 24
- 2.058 3 6 cbr 1000 ------- 2 1.0 5.0 10 24
d 2.058004 4 6 cbr 1000 ------- 2 1.0 5.0 10 24
+ 2.06 1 2 cbr 1000 ------- 2 1.0 5.0 11 33
- 2.06 1 2 cbr 1000 ------- 2 1.0 5.0 11 33
r 2.074 1 2 cbr 1000 ------- 2 1.0 5.0 11 33
+ 2.074 2 3 cbr 1000 ------- 2 1.0 5.0 11 33
- 2.074 2 3 cbr 1000 ------- 2 1.0 5.0 11 33
r 2.076264 2 3 tcp 1040 ------- 1 0.0 4.0 7 25
h 2.076264 3 6 tcp 1040 ------- 1 0.0 4.0 7 25
r 2.080424 2 3 tcp 1040 ------- 1 0.0 4.0 8 26
h 2.080424 3 6 tcp 1040 ------- 1 0.0 4.0 8 26
r 2.084584 2 3 tcp 1040 ------- 1 0.0 4.0 9 27
h 2.084584 3 6 tcp 1040 ------- 1 0.0 4.0 9 27
r 2.088744 2 3 tcp 1040 ------- 1 0.0 4.0 10 28
h 2.088744 3 6 tcp 1040 ------- 1 0.0 4.0 10 28
r 2.092904 2 3 tcp 1040 ------- 1 0.0 4.0 11 29
h 2.092904 3 6 tcp 1040 ------- 1 0.0 4.0 11 29
r 2.097064 2 3 tcp 1040 ------- 1 0.0 4.0 12 30
h 2.097064 3 6 tcp 1040 ------- 1 0.0 4.0 12 30
r 2.098004 6 5 cbr 1000 ------- 2 1.0 5.0 10 24
r 2.101224 2 3 tcp 1040 ------- 1 0.0 4.0 13 31
h 2.101224 3 6 tcp 1040 ------- 1 0.0 4.0 13 31
r 2.105384 2 3 tcp 1040 ------- 1 0.0 4.0 14 32
h 2.105384 3 6 tcp 1040 ------- 1 0.0 4.0 14 32
+ 2.116264 3 6 tcp 1040 ------- 1 0.0 4.0 7 25
- 2.116264 3 6 tcp 1040 ------- 1 0.0 4.0 7 25
d 2.116268 5 6 tcp 1040 ------- 1 0.0 4.0 7 25
+ 2.120424 3 6 tcp 1040 ------- 1 0.0 4.0 8 26
- 2.12068 3 6 tcp 1040 ------- 1 0.0 4.0 8 26
d 2.120684 5 6 tcp 1040 ------- 1 0.0 4.0 8 26
+ 2.124584 3 6 tcp 1040 ------- 1 0.0 4.0 9 27
- 2.125096 3 6 tcp 1040 ------- 1 0.0 4.0 9 27
d 2.1251 5 6 tcp 1040 ------- 1 0.0 4.0 9 27
+ 2.128744 3 6 tcp 1040 ------- 1 0.0 4.0 10 28
- 2.129512 3 6 tcp 1040 ------- 1 0.0 4.0 10 28
d 2.129516 5 6 tcp 1040 ------- 1 0.0 4.0 10 28
+ 2.132904 3 6 tcp 1040 ------- 1 0.0 4.0 11 29
- 2.133928 3 6 tcp 1040 ------- 1 0.0 4.0 11 29
d 2.133932 5 6 tcp 1040 ------- 1 0.0 4.0 11 29
+ 2.137064 3 6 tcp 1040 ------- 1 0.0 4.0 12 30
- 2.138344 3 6 tcp 1040 ------- 1 0.0 4.0 12 30
d 2.138348 5 6 tcp 1040 ------- 1 0.0 4.0 12 30
+ 2.141224 3 6 tcp 1040 ------- 1 0.0 4.0 13 31
- 2.14276 3 6 tcp 1040 ------- 1 0.0 4.0 13 31
d 2.142764 5 6 tcp 1040 ------- 1 0.0 4.0 13 31
+ 2.145384 3 6 tcp 1040 ------- 1 0.0 4.0 14 32
- 2.147176 3 6 tcp 1040 ------- 1 0.0 4.0 14 32
d 2.14718 5 6 tcp 1040 ------- 1 0.0 4.0 14 32
r 2.156268 6 4 tcp 1040 ------- 1 0.0 4.0 7 25
h 2.156268 4 6 ack 40 ------- 1 4.0 0.0 7 34
r 2.160684 6 4 tcp 1040 ------- 1 0.0 4.0 8 26
h 2.160684 4 6 ack 40 ------- 1 4.0 0.0 8 35
r 2.1651 6 4 tcp 1040 ------- 1 0.0 4.0 9 27
h 2.1651 4 6 ack 40 ------- 1 4.0 0.0 9 36
r 2.169516 6 4 tcp 1040 ------- 1 0.0 4.0 10 28
h 2.169516 4 6 ack 40 ------- 1 4.0 0.0 10 37
r 2.173932 6 4 tcp 1040 ------- 1 0.0 4.0 11 29
h 2.173932 4 6 ack 40 ------- 1 4.0 0.0 11 38
r 2.178 2 3 cbr 1000 ------- 2 1.0 5.0 11 33
h 2.178 3 6 cbr 1000 ------- 2 1.0 5.0 11 33
r 2.178348 6 4 tcp 1040 ------- 1 0.0 4.0 12 30
h 2.178348 4 6 ack 40 ------- 1 4.0 0.0 12 39
r 2.182764 6 4 tcp 1040 ------- 1 0.0 4.0 13 31
h 2.182764 4 6 ack 40 ------- 1 4.0 0.0 13 40
r 2.18718 6 4 tcp 1040 ------- 1 0.0 4.0 14 32
h 2.18718 4 6 ack 40 ------- 1 4.0 0.0 14 41
+ 2.196268 4 6 ack 40 ------- 1 4.0 0.0 7 34
- 2.196268 4 6 ack 40 ------- 1 4.0 0.0 7 34
d 2.196272 5 6 ack 40 ------- 1 4.0 0.0 7 34
+ 2.200684 4 6 ack 40 ------- 1 4.0 0.0 8 35
- 2.200684 4 6 ack 40 ------- 1 4.0 0.0 8 35
d 2.200688 5 6 ack 40 ------- 1 4.0 0.0 8 35
+ 2.2051 4 6 ack 40 ------- 1 4.0 0.0 9 36
- 2.2051 4 6 ack 40 ------- 1 4.0 0.0 9 36
d 2.205104 5 6 ack 40 ------- 1 4.0 0.0 9 36
+ 2.209516 4 6 ack 40 ------- 1 4.0 0.0 10 37
- 2.209516 4 6 ack 40 ------- 1 4.0 0.0 10 37
d 2.20952 5 6 ack 40 ------- 1 4.0 0.0 10 37
+ 2.213932 4 6 ack 40 ------- 1 4.0 0.0 11 38
- 2.213932 4 6 ack 40 ------- 1 4.0 0.0 11 38
d 2.213936 5 6 ack 40 ------- 1 4.0 0.0 11 38
+ 2.218 3 6 cbr 1000 ------- 2 1.0 5.0 11 33
- 2.218 3 6 cbr 1000 ------- 2 1.0 5.0 11 33
d 2.218004 4 6 cbr 1000 ------- 2 1.0 5.0 11 33
+ 2.218348 4 6 ack 40 ------- 1 4.0 0.0 12 39
- 2.218348 4 6 ack 40 ------- 1 4.0 0.0 12 39
d 2.218352 5 6 ack 40 ------- 1 4.0 0.0 12 39
+ 2.22 1 2 cbr 1000 ------- 2 1.0 5.0 12 42
- 2.22 1 2 cbr 1000 ------- 2 1.0 5.0 12 42
+ 2.222764 4 6 ack 40 ------- 1 4.0 0.0 13 40
- 2.222764 4 6 ack 40 ------- 1 4.0 0.0 13 40
d 2.222768 5 6 ack 40 ------- 1 4.0 0.0 13 40
+ 2.22718 4 6 ack 40 ------- 1 4.0 0.0 14 41
- 2.22718 4 6 ack 40 ------- 1 4.0 0.0 14 41
d 2.227184 5 6 ack 40 ------- 1 4.0 0.0 14 41
r 2.234 1 2 cbr 1000 ------- 2 1.0 5.0 12 42
+ 2.234 2 3 cbr 1000 ------- 2 1.0 5.0 12 42
- 2.234 2 3 cbr 1000 ------- 2 1.0 5.0 12 42
r 2.236272 6 3 ack 40 ------- 1 4.0 0.0 7 34
+ 2.236272 3 2 ack 40 ------- 1 4.0 0.0 7 34
- 2.236272 3 2 ack 40 ------- 1 4.0 0.0 7 34
r 2.240688 6 3 ack 40 ------- 1 4.0 0.0 8 35
+ 2.240688 3 2 ack 40 ------- 1 4.0 0.0 8 35
- 2.240688 3 2 ack 40 ------- 1 4.0 0.0 8 35
r 2.245104 6 3 ack 40 ------- 1 4.0 0.0 9 36
+ 2.245104 3 2 ack 40 ------- 1 4.0 0.0 9 36
- 2.245104 3 2 ack 40 ------- 1 4.0 0.0 9 36
r 2.24952 6 3 ack 40 ------- 1 4.0 0.0 10 37
+ 2.24952 3 2 ack 40 ------- 1 4.0 0.0 10 37
- 2.24952 3 2 ack 40 ------- 1 4.0 0.0 10 37
r 2.253936 6 3 ack 40 ------- 1 4.0 0.0 11 38
+ 2.253936 3 2 ack 40 ------- 1 4.0 0.0 11 38
- 2.253936 3 2 ack 40 ------- 1 4.0 0.0 11 38
r 2.258004 6 5 cbr 1000 ------- 2 1.0 5.0 11 33
r 2.258352 6 3 ack 40 ------- 1 4.0 0.0 12 39
+ 2.258352 3 2 ack 40 ------- 1 4.0 0.0 12 39
- 2.258352 3 2 ack 40 ------- 1 4.0 0.0 12 39
r 2.262768 6 3 ack 40 ------- 1 4.0 0.0 13 40
+ 2.262768 3 2 ack 40 ------- 1 4.0 0.0 13 40
- 2.262768 3 2 ack 40 ------- 1 4.0 0.0 13 40
r 2.267184 6 3 ack 40 ------- 1 4.0 0.0 14 41
+ 2.267184 3 2 ack 40 ------- 1 4.0 0.0 14 41
- 2.267184 3 2 ack 40 ------- 1 4.0 0.0 14 41
r 2.336432 3 2 ack 40 ------- 1 4.0 0.0 7 34
+ 2.336432 2 0 ack 40 ------- 1 4.0 0.0 7 34
- 2.336432 2 0 ack 40 ------- 1 4.0 0.0 7 34
r 2.338 2 3 cbr 1000 ------- 2 1.0 5.0 12 42
h 2.338 3 6 cbr 1000 ------- 2 1.0 5.0 12 42
r 2.340848 3 2 ack 40 ------- 1 4.0 0.0 8 35
+ 2.340848 2 0 ack 40 ------- 1 4.0 0.0 8 35
- 2.340848 2 0 ack 40 ------- 1 4.0 0.0 8 35
r 2.345264 3 2 ack 40 ------- 1 4.0 0.0 9 36
+ 2.345264 2 0 ack 40 ------- 1 4.0 0.0 9 36
- 2.345264 2 0 ack 40 ------- 1 4.0 0.0 9 36
r 2.346592 2 0 ack 40 ------- 1 4.0 0.0 7 34
+ 2.346592 0 2 tcp 1040 ------- 1 0.0 4.0 15 43
- 2.346592 0 2 tcp 1040 ------- 1 0.0 4.0 15 43
+ 2.346592 0 2 tcp 1040 ------- 1 0.0 4.0 16 44
r 2.34968 3 2 ack 40 ------- 1 4.0 0.0 10 37
+ 2.34968 2 0 ack 40 ------- 1 4.0 0.0 10 37
- 2.34968 2 0 ack 40 ------- 1 4.0 0.0 10 37
- 2.350752 0 2 tcp 1040 ------- 1 0.0 4.0 16 44
r 2.351008 2 0 ack 40 ------- 1 4.0 0.0 8 35
+ 2.351008 0 2 tcp 1040 ------- 1 0.0 4.0 17 45
+ 2.351008 0 2 tcp 1040 ------- 1 0.0 4.0 18 46
r 2.354096 3 2 ack 40 ------- 1 4.0 0.0 11 38
+ 2.354096 2 0 ack 40 ------- 1 4.0 0.0 11 38
- 2.354096 2 0 ack 40 ------- 1 4.0 0.0 11 38
- 2.354912 0 2 tcp 1040 ------- 1 0.0 4.0 17 45
r 2.355424 2 0 ack 40 ------- 1 4.0 0.0 9 36
+ 2.355424 0 2 tcp 1040 ------- 1 0.0 4.0 19 47
+ 2.355424 0 2 tcp 1040 ------- 1 0.0 4.0 20 48
r 2.358512 3 2 ack 40 ------- 1 4.0 0.0 12 39
+ 2.358512 2 0 ack 40 ------- 1 4.0 0.0 12 39
- 2.358512 2 0 ack 40 ------- 1 4.0 0.0 12 39
- 2.359072 0 2 tcp 1040 ------- 1 0.0 4.0 18 46
r 2.35984 2 0 ack 40 ------- 1 4.0 0.0 10 37
+ 2.35984 0 2 tcp 1040 ------- 1 0.0 4.0 21 49
+ 2.35984 0 2 tcp 1040 ------- 1 0.0 4.0 22 50
r 2.360752 0 2 tcp 1040 ------- 1 0.0 4.0 15 43
+ 2.360752 2 3 tcp 1040 ------- 1 0.0 4.0 15 43
- 2.360752 2 3 tcp 1040 ------- 1 0.0 4.0 15 43
r 2.362928 3 2 ack 40 ------- 1 4.0 0.0 13 40
+ 2.362928 2 0 ack 40 ------- 1 4.0 0.0 13 40
- 2.362928 2 0 ack 40 ------- 1 4.0 0.0 13 40
- 2.363232 0 2 tcp 1040 ------- 1 0.0 4.0 19 47
r 2.364256 2 0 ack 40 ------- 1 4.0 0.0 11 38
+ 2.364256 0 2 tcp 1040 ------- 1 0.0 4.0 23 51
+ 2.364256 0 2 tcp 1040 ------- 1 0.0 4.0 24 52
r 2.364912 0 2 tcp 1040 ------- 1 0.0 4.0 16 44
+ 2.364912 2 3 tcp 1040 ------- 1 0.0 4.0 16 44
- 2.364912 2 3 tcp 1040 ------- 1 0.0 4.0 16 44
r 2.367344 3 2 ack 40 ------- 1 4.0 0.0 14 41
+ 2.367344 2 0 ack 40 ------- 1 4.0 0.0 14 41
- 2.367344 2 0 ack 40 ------- 1 4.0 0.0 14 41
- 2.367392 0 2 tcp 1040 ------- 1 0.0 4.0 20 48
r 2.368672 2 0 ack 40 ------- 1 4.0 0.0 12 39
+ 2.368672 0 2 tcp 1040 ------- 1 0.0 4.0 25 53
+ 2.368672 0 2 tcp 1040 ------- 1 0.0 4.0 26 54
r 2.369072 0 2 tcp 1040 ------- 1 0.0 4.0 17 45
+ 2.369072 2 3 tcp 1040 ------- 1 0.0 4.0 17 45
- 2.369072 2 3 tcp 1040 ------- 1 0.0 4.0 17 45
- 2.371552 0 2 tcp 1040 ------- 1 0.0 4.0 21 49
r 2.373088 2 0 ack 40 ------- 1 4.0 0.0 13 40
+ 2.373088 0 2 tcp 1040 ------- 1 0.0 4.0 27 55
+ 2.373088 0 2 tcp 1040 ------- 1 0.0 4.0 28 56
r 2.373232 0 2 tcp 1040 ------- 1 0.0 4.0 18 46
+ 2.373232 2 3 tcp 1040 ------- 1 0.0 4.0 18 46
- 2.373232 2 3 tcp 1040 ------- 1 0.0 4.0 18 46
- 2.375712 0 2 tcp 1040 ------- 1 0.0 4.0 22 50
r 2.377392 0 2 tcp 1040 ------- 1 0.0 4.0 19 47
+ 2.377392 2 3 tcp 1040 ------- 1 0.0 4.0 19 47
- 2.377392 2 3 tcp 1040 ------- 1 0.0 4.0 19 47
r 2.377504 2 0 ack 40 ------- 1 4.0 0.0 14 41
+ 2.377504 0 2 tcp 1040 ------- 1 0.0 4.0 29 57
+ 2.377504 0 2 tcp 1040 ------- 1 0.0 4.0 30 58
+ 2.378 3 6 cbr 1000 ------- 2 1.0 5.0 12 42
- 2.378 3 6 cbr 1000 ------- 2 1.0 5.0 12 42
d 2.378004 4 6 cbr 1000 ------- 2 1.0 5.0 12 42
- 2.379872 0 2 tcp 1040 ------- 1 0.0 4.0 23 51
+ 2.38 1 2 cbr 1000 ------- 2 1.0 5.0 13 59
- 2.38 1 2 cbr 1000 ------- 2 1.0 5.0 13 59
r 2.381552 0 2 tcp 1040 ------- 1 0.0 4.0 20 48
+ 2.381552 2 3 tcp 1040 ------- 1 0.0 4.0 20 48
- 2.381552 2 3 tcp 1040 ------- 1 0.0 4.0 20 48
- 2.384032 0 2 tcp 1040 ------- 1 0.0 4.0 24 52
r 2.385712 0 2 tcp 1040 ------- 1 0.0 4.0 21 49
+ 2.385712 2 3 tcp 1040 ------- 1 0.0 4.0 21 49
- 2.385712 2 3 tcp 1040 ------- 1 0.0 4.0 21 49
- 2.388192 0 2 tcp 1040 ------- 1 0.0 4.0 25 53
r 2.389872 0 2 tcp 1040 ------- 1 0.0 4.0 22 50
+ 2.389872 2 3 tcp 1040 ------- 1 0.0 4.0 22 50
- 2.389872 2 3 tcp 1040 ------- 1 0.0 4.0 22 50
- 2.392352 0 2 tcp 1040 ------- 1 0.0 4.0 26 54
r 2.394 1 2 cbr 1000 ------- 2 1.0 5.0 13 59
+ 2.394 2 3 cbr 1000 ------- 2 1.0 5.0 13 59
r 2.394032 0 2 tcp 1040 ------- 1 0.0 4.0 23 51
+ 2.394032 2 3 tcp 1040 ------- 1 0.0 4.0 23 51
- 2.394032 2 3 cbr 1000 ------- 2 1.0 5.0 13 59
- 2.396512 0 2 tcp 1040 ------- 1 0.0 4.0 27 55
- 2.398032 2 3 tcp 1040 ------- 1 0.0 4.0 23 51
r 2.398192 0 2 tcp 1040 ------- 1 0.0 4.0 24 52
+ 2.398192 2 3 tcp 1040 ------- 1 0.0 4.0 24 52
- 2.400672 0 2 tcp 1040 ------- 1 0.0 4.0 28 56
- 2.402192 2 3 tcp 1040 ------- 1 0.0 4.0 24 52
r 2.402352 0 2 tcp 1040 ------- 1 0.0 4.0 25 53
+ 2.402352 2 3 tcp 1040 ------- 1 0.0 4.0 25 53
- 2.404832 0 2 tcp 1040 ------- 1 0.0 4.0 29 57
- 2.406352 2 3 tcp 1040 ------- 1 0.0 4.0 25 53
r 2.406512 0 2 tcp 1040 ------- 1 0.0 4.0 26 54
+ 2.406512 2 3 tcp 1040 ------- 1 0.0 4.0 26 54
- 2.408992 0 2 tcp 1040 ------- 1 0.0 4.0 30 58
- 2.410512 2 3 tcp 1040 ------- 1 0.0 4.0 26 54
r 2.410672 0 2 tcp 1040 ------- 1 0.0 4.0 27 55
+ 2.410672 2 3 tcp 1040 ------- 1 0.0 4.0 27 55
- 2.414672 2 3 tcp 1040 ------- 1 0.0 4.0 27 55
r 2.414832 0 2 tcp 1040 ------- 1 0.0 4.0 28 56
+ 2.414832 2 3 tcp 1040 ------- 1 0.0 4.0 28 56
r 2.418004 6 5 cbr 1000 ------- 2 1.0 5.0 12 42
- 2.418832 2 3 tcp 1040 ------- 1 0.0 4.0 28 56
r 2.418992 0 2 tcp 1040 ------- 1 0.0 4.0 29 57
+ 2.418992 2 3 tcp 1040 ------- 1 0.0 4.0 29 57
- 2.422992 2 3 tcp 1040 ------- 1 0.0 4.0 29 57
r 2.423152 0 2 tcp 1040 ------- 1 0.0 4.0 30 58
+ 2.423152 2 3 tcp 1040 ------- 1 0.0 4.0 30 58
- 2.427152 2 3 tcp 1040 ------- 1 0.0 4.0 30 58
r 2.464912 2 3 tcp 1040 ------- 1 0.0 4.0 15 43
h 2.464912 3 6 tcp 1040 ------- 1 0.0 4.0 15 43
r 2.469072 2 3 tcp 1040 ------- 1 0.0 4.0 16 44
h 2.469072 3 6 tcp 1040 ------- 1 0.0 4.0 16 44
r 2.473232 2 3 tcp 1040 ------- 1 0.0 4.0 17 45
h 2.473232 3 6 tcp 1040 ------- 1 0.0 4.0 17 45
r 2.477392 2 3 tcp 1040 ------- 1 0.0 4.0 18 46
h 2.477392 3 6 tcp 1040 ------- 1 0.0 4.0 18 46
r 2.481552 2 3 tcp 1040 ------- 1 0.0 4.0 19 47
h 2.481552 3 6 tcp 1040 ------- 1 0.0 4.0 19 47
r 2.485712 2 3 tcp 1040 ------- 1 0.0 4.0 20 48
h 2.485712 3 6 tcp 1040 ------- 1 0.0 4.0 20 48
r 2.489872 2 3 tcp 1040 ------- 1 0.0 4.0 21 49
h 2.489872 3 6 tcp 1040 ------- 1 0.0 4.0 21 49
r 2.494032 2 3 tcp 1040 ------- 1 0.0 4.0 22 50
h 2.494032 3 6 tcp 1040 ------- 1 0.0 4.0 22 50
r 2.498032 2 3 cbr 1000 ------- 2 1.0 5.0 13 59
h 2.498032 3 6 cbr 1000 ------- 2 1.0 5.0 13 59
r 2.502192 2 3 tcp 1040 ------- 1 0.0 4.0 23 51
h 2.502192 3 6 tcp 1040 ------- 1 0.0 4.0 23 51
+ 2.504912 3 6 tcp 1040 ------- 1 0.0 4.0 15 43
- 2.504912 3 6 tcp 1040 ------- 1 0.0 4.0 15 43
d 2.504916 5 6 tcp 1040 ------- 1 0.0 4.0 15 43
r 2.506352 2 3 tcp 1040 ------- 1 0.0 4.0 24 52
h 2.506352 3 6 tcp 1040 ------- 1 0.0 4.0 24 52
+ 2.509072 3 6 tcp 1040 ------- 1 0.0 4.0 16 44
- 2.509328 3 6 tcp 1040 ------- 1 0.0 4.0 16 44
d 2.509332 5 6 tcp 1040 ------- 1 0.0 4.0 16 44
r 2.510512 2 3 tcp 1040 ------- 1 0.0 4.0 25 53
h 2.510512 3 6 tcp 1040 ------- 1 0.0 4.0 25 53
+ 2.513232 3 6 tcp 1040 ------- 1 0.0 4.0 17 45
- 2.513744 3 6 tcp 1040 ------- 1 0.0 4.0 17 45
d 2.513748 5 6 tcp 1040 ------- 1 0.0 4.0 17 45
r 2.514672 2 3 tcp 1040 ------- 1 0.0 4.0 26 54
h 2.514672 3 6 tcp 1040 ------- 1 0.0 4.0 26 54
+ 2.517392 3 6 tcp 1040 ------- 1 0.0 4.0 18 46
- 2.51816 3 6 tcp 1040 ------- 1 0.0 4.0 18 46
d 2.518164 5 6 tcp 1040 ------- 1 0.0 4.0 18 46
r 2.518832 2 3 tcp 1040 ------- 1 0.0 4.0 27 55
h 2.518832 3 6 tcp 1040 ------- 1 0.0 4.0 27 55
+ 2.521552 3 6 tcp 1040 ------- 1 0.0 4.0 19 47
- 2.522576 3 6 tcp 1040 ------- 1 0.0 4.0 19 47
d 2.52258 5 6 tcp 1040 ------- 1 0.0 4.0 19 47
r 2.522992 2 3 tcp 1040 ------- 1 0.0 4.0 28 56
h 2.522992 3 6 tcp 1040 ------- 1 0.0 4.0 28 56
+ 2.525712 3 6 tcp 1040 ------- 1 0.0 4.0 20 48
- 2.526992 3 6 tcp 1040 ------- 1 0.0 4.0 20 48
d 2.526996 5 6 tcp 1040 ------- 1 0.0 4.0 20 48
r 2.527152 2 3 tcp 1040 ------- 1 0.0 4.0 29 57
h 2.527152 3 6 tcp 1040 ------- 1 0.0 4.0 29 57
+ 2.529872 3 6 tcp 1040 ------- 1 0.0 4.0 21 49
r 2.531312 2 3 tcp 1040 ------- 1 0.0 4.0 30 58
h 2.531312 3 6 tcp 1040 ------- 1 0.0 4.0 30 58
- 2.531408 3 6 tcp 1040 ------- 1 0.0 4.0 21 49
d 2.531412 5 6 tcp 1040 ------- 1 0.0 4.0 21 49
+ 2.534032 3 6 tcp 1040 ------- 1 0.0 4.0 22 50
- 2.535824 3 6 tcp 1040 ------- 1 0.0 4.0 22 50
d 2.535828 5 6 tcp 1040 ------- 1 0.0 4.0 22 50
+ 2.538032 3 6 cbr 1000 ------- 2 1.0 5.0 13 59
+ 2.54 1 2 cbr 1000 ------- 2 1.0 5.0 14 60
- 2.54 1 2 cbr 1000 ------- 2 1.0 5.0 14 60
- 2.54024 3 6 cbr 1000 ------- 2 1.0 5.0 13 59
d 2.540244 4 6 cbr 1000 ------- 2 1.0 5.0 13 59
+ 2.542192 3 6 tcp 1040 ------- 1 0.0 4.0 23 51
- 2.544496 3 6 tcp 1040 ------- 1 0.0 4.0 23 51
d 2.5445 5 6 tcp 1040 ------- 1 0.0 4.0 23 51
r 2.544916 6 4 tcp 1040 ------- 1 0.0 4.0 15 43
h 2.544916 4 6 ack 40 ------- 1 4.0 0.0 15 61
+ 2.546352 3 6 tcp 1040 ------- 1 0.0 4.0 24 52
- 2.548912 3 6 tcp 1040 ------- 1 0.0 4.0 24 52
d 2.548916 5 6 tcp 1040 ------- 1 0.0 4.0 24 52
r 2.549332 6 4 tcp 1040 ------- 1 0.0 4.0 16 44
h 2.549332 4 6 ack 40 ------- 1 4.0 0.0 16 62
+ 2.550512 3 6 tcp 1040 ------- 1 0.0 4.0 25 53
- 2.553328 3 6 tcp 1040 ------- 1 0.0 4.0 25 53
d 2.553332 5 6 tcp 1040 ------- 1 0.0 4.0 25 53
r 2.553748 6 4 tcp 1040 ------- 1 0.0 4.0 17 45
h 2.553748 4 6 ack 40 ------- 1 4.0 0.0 17 63
r 2.554 1 2 cbr 1000 ------- 2 1.0 5.0 14 60
+ 2.554 2 3 cbr 1000 ------- 2 1.0 5.0 14 60
- 2.554 2 3 cbr 1000 ------- 2 1.0 5.0 14 60
+ 2.554672 3 6 tcp 1040 ------- 1 0.0 4.0 26 54
- 2.557744 3 6 tcp 1040 ------- 1 0.0 4.0 26 54
d 2.557748 5 6 tcp 1040 ------- 1 0.0 4.0 26 54
r 2.558164 6 4 tcp 1040 ------- 1 0.0 4.0 18 46
h 2.558164 4 6 ack 40 ------- 1 4.0 0.0 18 64
+ 2.558832 3 6 tcp 1040 ------- 1 0.0 4.0 27 55
- 2.56216 3 6 tcp 1040 ------- 1 0.0 4.0 27 55
d 2.562164 5 6 tcp 1040 ------- 1 0.0 4.0 27 55
r 2.56258 6 4 tcp 1040 ------- 1 0.0 4.0 19 47
h 2.56258 4 6 ack 40 ------- 1 4.0 0.0 19 65
+ 2.562992 3 6 tcp 1040 ------- 1 0.0 4.0 28 56
- 2.566576 3 6 tcp 1040 ------- 1 0.0 4.0 28 56